ITEM: TIMESTEP
2400
ITEM: NUMBER OF ATOMS
4798
ITEM: BOX BOUNDS ff ff ff
-10.3577 110.358
-10.0998 131.9
-100.402 112.598
ITEM: ATOMS id x y z fx fy fz vx vy vz 
72 -0.062301 2.4752 6.09765 0 0 0 0 0 0 
110 4.19854 7.39519 6.09765 0 0 0 0 0 0 
109 2.77826 7.39519 6.09765 0 0 0 0 0 0 
93 4.19854 4.9352 6.09765 0 0 0 0 0 0 
92 2.77826 4.9352 6.09765 0 0 0 0 0 0 
91 2.06812 6.16519 6.09765 0 0 0 0 0 0 
87 0.647839 6.16519 6.09765 0 0 0 0 0 0 
86 -0.062301 7.39519 6.09765 0 0 0 0 0 0 
81 4.19854 2.4752 6.09765 0 0 0 0 0 0 
80 2.77826 2.4752 6.09765 0 0 0 0 0 0 
79 2.06812 3.7052 6.09765 0 0 0 0 0 0 
78 0.647839 3.7052 6.09765 0 0 0 0 0 0 
77 -0.062301 4.9352 6.09765 0 0 0 0 0 0 
76 4.19854 0.015197 6.09765 0 0 0 0 0 0 
75 2.77826 0.015197 6.09765 0 0 0 0 0 0 
74 2.06812 1.2452 6.09765 0 0 0 0 0 0 
73 0.647839 1.2452 6.09765 0 0 0 0 0 0 
6 -0.062301 12.3152 6.09765 0 0 0 0 0 0 
131 4.19854 12.3152 6.09765 0 0 0 0 0 0 
130 2.77826 12.3152 6.09765 0 0 0 0 0 0 
124 4.19854 9.85519 6.09765 0 0 0 0 0 0 
123 2.77826 9.85519 6.09765 0 0 0 0 0 0 
122 2.06812 11.0852 6.09765 0 0 0 0 0 0 
117 0.647839 11.0852 6.09765 0 0 0 0 0 0 
108 2.06812 8.62519 6.09765 0 0 0 0 0 0 
100 0.647839 8.62519 6.09765 0 0 0 0 0 0 
99 -0.062301 9.85519 6.09765 0 0 0 0 0 0 
34 4.19854 14.7752 6.09765 0 0 0 0 0 0 
33 2.77826 14.7752 6.09765 0 0 0 0 0 0 
32 2.06812 16.0052 6.09765 0 0 0 0 0 0 
31 0.647839 16.0052 6.09765 0 0 0 0 0 0 
19 2.06812 13.5452 6.09765 0 0 0 0 0 0 
18 0.647839 13.5452 6.09765 0 0 0 0 0 0 
17 -0.062301 14.7752 6.09765 0 0 0 0 0 0 
300 4.19854 24.6152 6.09765 0 0 0 0 0 0 
299 2.77826 24.6152 6.09765 0 0 0 0 0 0 
204 4.19854 22.1552 6.09765 0 0 0 0 0 0 
203 2.77826 22.1552 6.09765 0 0 0 0 0 0 
202 2.06812 23.3852 6.09765 0 0 0 0 0 0 
191 0.647839 23.3852 6.09765 0 0 0 0 0 0 
190 -0.062301 24.6152 6.09765 0 0 0 0 0 0 
71 2.06812 20.9252 6.09765 0 0 0 0 0 0 
70 0.647839 20.9252 6.09765 0 0 0 0 0 0 
69 -0.062301 22.1552 6.09765 0 0 0 0 0 0 
63 4.19854 19.6952 6.09765 0 0 0 0 0 0 
62 2.77826 19.6952 6.09765 0 0 0 0 0 0 
49 4.19854 17.2352 6.09765 0 0 0 0 0 0 
48 2.77826 17.2352 6.09765 0 0 0 0 0 0 
47 2.06812 18.4652 6.09765 0 0 0 0 0 0 
46 0.647839 18.4652 6.09765 0 0 0 0 0 0 
45 -0.062301 19.6952 6.09765 0 0 0 0 0 0 
30 -0.062301 17.2352 6.09765 0 0 0 0 0 0 
355 4.19854 31.9952 6.09765 0 0 0 0 0 0 
354 2.77826 31.9952 6.09765 0 0 0 0 0 0 
353 2.06812 33.2252 6.09765 0 0 0 0 0 0 
344 0.647839 33.2252 6.09765 0 0 0 0 0 0 
335 4.19854 29.5352 6.09765 0 0 0 0 0 0 
334 2.77826 29.5352 6.09765 0 0 0 0 0 0 
333 2.06812 30.7652 6.09765 0 0 0 0 0 0 
326 0.647839 30.7652 6.09765 0 0 0 0 0 0 
325 -0.062301 31.9952 6.09765 0 0 0 0 0 0 
315 4.19854 27.0752 6.09765 0 0 0 0 0 0 
314 2.77826 27.0752 6.09765 0 0 0 0 0 0 
313 2.06812 28.3052 6.09765 0 0 0 0 0 0 
308 0.647839 28.3052 6.09765 0 0 0 0 0 0 
307 -0.062301 29.5352 6.09765 0 0 0 0 0 0 
298 2.06812 25.8452 6.09765 0 0 0 0 0 0 
297 0.647839 25.8452 6.09765 0 0 0 0 0 0 
296 -0.062301 27.0752 6.09765 0 0 0 0 0 0 
215 -0.062301 36.9152 6.09765 0 0 0 0 0 0 
376 4.19854 36.9152 6.09765 0 0 0 0 0 0 
375 2.77826 36.9152 6.09765 0 0 0 0 0 0 
369 4.19854 34.4552 6.09765 0 0 0 0 0 0 
368 2.77826 34.4552 6.09765 0 0 0 0 0 0 
367 2.06812 35.6852 6.09765 0 0 0 0 0 0 
362 0.647839 35.6852 6.09765 0 0 0 0 0 0 
343 -0.062301 34.4552 6.09765 0 0 0 0 0 0 
258 4.19854 41.8352 6.09765 0 0 0 0 0 0 
257 2.77826 41.8352 6.09765 0 0 0 0 0 0 
256 2.06812 43.0652 6.09765 0 0 0 0 0 0 
255 0.647839 43.0652 6.09765 0 0 0 0 0 0 
243 4.19854 39.3752 6.09765 0 0 0 0 0 0 
242 2.77826 39.3752 6.09765 0 0 0 0 0 0 
241 2.06812 40.6052 6.09765 0 0 0 0 0 0 
240 0.647839 40.6052 6.09765 0 0 0 0 0 0 
239 -0.062301 41.8352 6.09765 0 0 0 0 0 0 
228 2.06812 38.1452 6.09765 0 0 0 0 0 0 
227 0.647839 38.1452 6.09765 0 0 0 0 0 0 
226 -0.062301 39.3752 6.09765 0 0 0 0 0 0 
254 -0.062301 44.2952 6.09765 0 0 0 0 0 0 
905 4.19854 51.6752 6.09765 0 0 0 0 0 0 
904 2.77826 51.6752 6.09765 0 0 0 0 0 0 
890 4.19854 49.2152 6.09765 0 0 0 0 0 0 
889 2.77826 49.2152 6.09765 0 0 0 0 0 0 
888 2.06812 50.4452 6.09765 0 0 0 0 0 0 
887 0.647839 50.4452 6.09765 0 0 0 0 0 0 
886 -0.062301 51.6752 6.09765 0 0 0 0 0 0 
794 4.19854 46.7552 6.09765 0 0 0 0 0 0 
793 2.77826 46.7552 6.09765 0 0 0 0 0 0 
792 2.06812 47.9852 6.09765 0 0 0 0 0 0 
781 0.647839 47.9852 6.09765 0 0 0 0 0 0 
780 -0.062301 49.2152 6.09765 0 0 0 0 0 0 
280 2.06812 45.5252 6.09765 0 0 0 0 0 0 
279 0.647839 45.5252 6.09765 0 0 0 0 0 0 
278 -0.062301 46.7552 6.09765 0 0 0 0 0 0 
272 4.19854 44.2952 6.09765 0 0 0 0 0 0 
271 2.77826 44.2952 6.09765 0 0 0 0 0 0 
959 4.19854 59.0552 6.09765 0 0 0 0 0 0 
958 2.77826 59.0552 6.09765 0 0 0 0 0 0 
957 2.06812 60.2852 6.09765 0 0 0 0 0 0 
952 0.647839 60.2852 6.09765 0 0 0 0 0 0 
945 4.19854 56.5952 6.09765 0 0 0 0 0 0 
944 2.77826 56.5952 6.09765 0 0 0 0 0 0 
943 2.06812 57.8252 6.09765 0 0 0 0 0 0 
934 0.647839 57.8252 6.09765 0 0 0 0 0 0 
933 -0.062301 59.0552 6.09765 0 0 0 0 0 0 
925 4.19854 54.1352 6.09765 0 0 0 0 0 0 
924 2.77826 54.1352 6.09765 0 0 0 0 0 0 
923 2.06812 55.3652 6.09765 0 0 0 0 0 0 
916 0.647839 55.3652 6.09765 0 0 0 0 0 0 
915 -0.062301 56.5952 6.09765 0 0 0 0 0 0 
903 2.06812 52.9052 6.09765 0 0 0 0 0 0 
898 0.647839 52.9052 6.09765 0 0 0 0 0 0 
897 -0.062301 54.1352 6.09765 0 0 0 0 0 0 
805 -0.062301 61.5152 6.09765 0 0 0 0 0 0 
966 4.19854 61.5152 6.09765 0 0 0 0 0 0 
965 2.77826 61.5152 6.09765 0 0 0 0 0 0 
862 4.19854 68.8952 6.09765 0 0 0 0 0 0 
861 2.77826 68.8952 6.09765 0 0 0 0 0 0 
848 4.19854 66.4352 6.09765 0 0 0 0 0 0 
847 2.77826 66.4352 6.09765 0 0 0 0 0 0 
846 2.06812 67.6652 6.09765 0 0 0 0 0 0 
845 0.647839 67.6652 6.09765 0 0 0 0 0 0 
844 -0.062301 68.8952 6.09765 0 0 0 0 0 0 
833 4.19854 63.9752 6.09765 0 0 0 0 0 0 
832 2.77826 63.9752 6.09765 0 0 0 0 0 0 
831 2.06812 65.2052 6.09765 0 0 0 0 0 0 
830 0.647839 65.2052 6.09765 0 0 0 0 0 0 
829 -0.062301 66.4352 6.09765 0 0 0 0 0 0 
818 2.06812 62.7452 6.09765 0 0 0 0 0 0 
817 0.647839 62.7452 6.09765 0 0 0 0 0 0 
816 -0.062301 63.9752 6.09765 0 0 0 0 0 0 
1828 4.19854 76.2752 6.09765 0 0 0 0 0 0 
1827 2.77826 76.2752 6.09765 0 0 0 0 0 0 
1826 2.06812 77.5052 6.09765 0 0 0 0 0 0 
1821 0.647839 77.5052 6.09765 0 0 0 0 0 0 
1813 4.19854 73.8152 6.09765 0 0 0 0 0 0 
1812 2.77826 73.8152 6.09765 0 0 0 0 0 0 
1811 2.06812 75.0452 6.09765 0 0 0 0 0 0 
1810 0.647839 75.0452 6.09765 0 0 0 0 0 0 
1809 -0.062301 76.2752 6.09765 0 0 0 0 0 0 
1717 4.19854 71.3552 6.09765 0 0 0 0 0 0 
1716 2.77826 71.3552 6.09765 0 0 0 0 0 0 
1715 2.06812 72.5852 6.09765 0 0 0 0 0 0 
1704 0.647839 72.5852 6.09765 0 0 0 0 0 0 
1703 -0.062301 73.8152 6.09765 0 0 0 0 0 0 
870 2.06812 70.1252 6.09765 0 0 0 0 0 0 
869 0.647839 70.1252 6.09765 0 0 0 0 0 0 
868 -0.062301 71.3552 6.09765 0 0 0 0 0 0 
1728 -0.062301 86.1152 6.09765 0 0 0 0 0 0 
1889 4.19854 86.1152 6.09765 0 0 0 0 0 0 
1888 2.77826 86.1152 6.09765 0 0 0 0 0 0 
1882 4.19854 83.6552 6.09765 0 0 0 0 0 0 
1881 2.77826 83.6552 6.09765 0 0 0 0 0 0 
1880 2.06812 84.8852 6.09765 0 0 0 0 0 0 
1875 0.647839 84.8852 6.09765 0 0 0 0 0 0 
1868 4.19854 81.1952 6.09765 0 0 0 0 0 0 
1867 2.77826 81.1952 6.09765 0 0 0 0 0 0 
1866 2.06812 82.4252 6.09765 0 0 0 0 0 0 
1857 0.647839 82.4252 6.09765 0 0 0 0 0 0 
1856 -0.062301 83.6552 6.09765 0 0 0 0 0 0 
1848 4.19854 78.7352 6.09765 0 0 0 0 0 0 
1847 2.77826 78.7352 6.09765 0 0 0 0 0 0 
1846 2.06812 79.9652 6.09765 0 0 0 0 0 0 
1839 0.647839 79.9652 6.09765 0 0 0 0 0 0 
1838 -0.062301 81.1952 6.09765 0 0 0 0 0 0 
1820 -0.062301 78.7352 6.09765 0 0 0 0 0 0 
1741 2.06812 87.3452 6.09765 0 0 0 0 0 0 
1740 0.647839 87.3452 6.09765 0 0 0 0 0 0 
2677 4.19854 95.9552 6.09765 0 0 0 0 0 0 
2676 2.77826 95.9552 6.09765 0 0 0 0 0 0 
1793 2.06812 94.7252 6.09765 0 0 0 0 0 0 
1792 0.647839 94.7252 6.09765 0 0 0 0 0 0 
1791 -0.062301 95.9552 6.09765 0 0 0 0 0 0 
1785 4.19854 93.4952 6.09765 0 0 0 0 0 0 
1784 2.77826 93.4952 6.09765 0 0 0 0 0 0 
1771 4.19854 91.0352 6.09765 0 0 0 0 0 0 
1770 2.77826 91.0352 6.09765 0 0 0 0 0 0 
1769 2.06812 92.2652 6.09765 0 0 0 0 0 0 
1768 0.647839 92.2652 6.09765 0 0 0 0 0 0 
1767 -0.062301 93.4952 6.09765 0 0 0 0 0 0 
1756 4.19854 88.5752 6.09765 0 0 0 0 0 0 
1755 2.77826 88.5752 6.09765 0 0 0 0 0 0 
1754 2.06812 89.8052 6.09765 0 0 0 0 0 0 
1753 0.647839 89.8052 6.09765 0 0 0 0 0 0 
1752 -0.062301 91.0352 6.09765 0 0 0 0 0 0 
1739 -0.062301 88.5752 6.09765 0 0 0 0 0 0 
2663 -0.062301 98.4152 6.09765 0 0 0 0 0 0 
2808 4.19854 103.335 6.09765 0 0 0 0 0 0 
2807 2.77826 103.335 6.09765 0 0 0 0 0 0 
2806 2.06812 104.565 6.09765 0 0 0 0 0 0 
2799 0.647839 104.565 6.09765 0 0 0 0 0 0 
2788 4.19854 100.875 6.09765 0 0 0 0 0 0 
2787 2.77826 100.875 6.09765 0 0 0 0 0 0 
2786 2.06812 102.105 6.09765 0 0 0 0 0 0 
2781 0.647839 102.105 6.09765 0 0 0 0 0 0 
2780 -0.062301 103.335 6.09765 0 0 0 0 0 0 
2773 4.19854 98.4152 6.09765 0 0 0 0 0 0 
2772 2.77826 98.4152 6.09765 0 0 0 0 0 0 
2771 2.06812 99.6452 6.09765 0 0 0 0 0 0 
2770 0.647839 99.6452 6.09765 0 0 0 0 0 0 
2769 -0.062301 100.875 6.09765 0 0 0 0 0 0 
2675 2.06812 97.1852 6.09765 0 0 0 0 0 0 
2664 0.647839 97.1852 6.09765 0 0 0 0 0 0 
2849 4.19854 110.715 6.09765 0 0 0 0 0 0 
2848 2.77826 110.715 6.09765 0 0 0 0 0 0 
2842 4.19854 108.255 6.09765 0 0 0 0 0 0 
2841 2.77826 108.255 6.09765 0 0 0 0 0 0 
2840 2.06812 109.485 6.09765 0 0 0 0 0 0 
2835 0.647839 109.485 6.09765 0 0 0 0 0 0 
2828 4.19854 105.795 6.09765 0 0 0 0 0 0 
2827 2.77826 105.795 6.09765 0 0 0 0 0 0 
2826 2.06812 107.025 6.09765 0 0 0 0 0 0 
2817 0.647839 107.025 6.09765 0 0 0 0 0 0 
2816 -0.062301 108.255 6.09765 0 0 0 0 0 0 
2798 -0.062301 105.795 6.09765 0 0 0 0 0 0 
2716 4.19854 113.175 6.09765 0 0 0 0 0 0 
2715 2.77826 113.175 6.09765 0 0 0 0 0 0 
2701 2.06812 111.945 6.09765 0 0 0 0 0 0 
2700 0.647839 111.945 6.09765 0 0 0 0 0 0 
2699 -0.062301 113.175 6.09765 0 0 0 0 0 0 
2688 -0.062301 110.715 6.09765 0 0 0 0 0 0 
2712 -0.062301 115.635 6.09765 0 0 0 0 0 0 
3636 4.19854 120.555 6.09765 0 0 0 0 0 0 
3635 2.77826 120.555 6.09765 0 0 0 0 0 0 
3634 2.06812 121.785 6.09765 0 0 0 0 0 0 
3623 0.647839 121.785 6.09765 0 0 0 0 0 0 
2753 2.06812 119.325 6.09765 0 0 0 0 0 0 
2752 0.647839 119.325 6.09765 0 0 0 0 0 0 
2751 -0.062301 120.555 6.09765 0 0 0 0 0 0 
2745 4.19854 118.095 6.09765 0 0 0 0 0 0 
2744 2.77826 118.095 6.09765 0 0 0 0 0 0 
2731 4.19854 115.635 6.09765 0 0 0 0 0 0 
2730 2.77826 115.635 6.09765 0 0 0 0 0 0 
2729 2.06812 116.865 6.09765 0 0 0 0 0 0 
2728 0.647839 116.865 6.09765 0 0 0 0 0 0 
2727 -0.062301 118.095 6.09765 0 0 0 0 0 0 
2714 2.06812 114.405 6.09765 0 0 0 0 0 0 
2713 0.647839 114.405 6.09765 0 0 0 0 0 0 
127 7.04433 7.49177 6.09203 0.177544 0.132114 0.0606747 -0.249693 0.533278 1.03004 
5 19.2544 1.95003 6.06542 -0.0257121 0.201895 0.0802746 -0.54913 0.00532904 0.485852 
9 14.8995 6.63705 6.16844 -0.0457059 0.237887 0.0307473 0.533337 -0.0422522 2.41966 
10 17.0607 5.50628 6.1757 -0.029316 0.0673979 -0.0481521 -0.566156 0.693935 -0.251456 
11 19.2126 4.35758 6.14884 0.102424 0.210138 -0.00573152 -1.2217 0.27896 0.273128 
4 17.1037 3.09852 6.05833 0.588065 0.0828751 0.0163215 0.165639 0.317334 0.512706 
121 17.8705 1.918 5.94081 -0.0480088 0.0363923 0.073211 0.087431 0.118708 -0.290423 
14 15.6449 5.45056 6.19271 -0.108983 -0.326172 -0.0728664 0.149552 0.223667 0.43846 
15 17.8029 4.31929 6.12599 -0.162867 -0.208299 0.101091 -0.0930124 -1.56905 0.30649 
3 14.9425 4.2243 6.16215 0.0866399 0.330565 0.0501795 -0.714361 -0.0372798 0.229428 
24 19.1815 6.77383 6.15549 -0.096166 -0.034424 0.0136536 -0.857973 -0.0743909 -0.766766 
2 12.7766 5.35168 6.17654 0.213818 -0.155746 -0.00689199 -0.332748 -0.96672 0.144038 
28 17.7657 6.72391 6.16469 0.145983 -0.22081 0.00322751 0.945053 -1.40236 -0.933892 
120 15.6917 3.04327 6.10224 -0.128946 -0.315447 0.092117 0.0936213 0.0778943 -0.157694 
115 9.23363 3.95572 6.16173 -0.050725 -0.0704923 -0.0482548 -0.502634 0.602906 -1.21376 
84 7.20597 0.238411 6.06508 -0.0648866 0.0971811 0.00321882 0.799243 0.0723018 0.326429 
114 8.48672 5.1455 6.13473 -0.216131 0.0740715 -0.0799391 1.41512 0.100019 -0.23093 
113 7.05915 5.04779 6.12145 0.246742 0.145595 0.0059943 0.511808 0.566663 1.04079 
107 15.7884 0.659543 5.90295 -0.0498036 -0.016259 0.0846649 -0.0438185 -0.435245 0.334877 
90 11.5264 0.487424 6.06949 -0.0131546 -0.0484449 -0.0251609 -0.738467 0.264937 -1.48063 
112 6.32794 6.25408 6.11273 0.0151043 0.0388348 -0.0619043 0.991204 -0.170806 0.350586 
105 11.4106 2.86344 6.15581 -0.033328 -0.0530071 -0.0316957 0.39261 0.569078 -0.663861 
104 17.1407 0.74355 5.70159 0.148516 -0.181657 -0.0944805 0.86903 0.762564 -0.54601 
103 14.9973 1.80871 6.07193 -0.0421042 0.213173 -0.118022 0.0771512 -0.463828 0.773537 
13 13.48 6.57906 6.16179 0.243392 -0.373651 0.00504588 -0.0328855 0.466114 -0.176596 
1 10.623 6.4658 6.1394 -0.402034 0.0347647 0.0195816 0.611633 0.143991 -0.808562 
101 10.6572 4.04527 6.16921 -0.140651 0.156209 0.0205745 -0.176596 -0.494211 -0.0551885 
129 9.19936 6.37563 6.10701 0.164038 0.0489568 0.139045 0.492558 -1.17528 -1.34481 
97 8.51958 2.72438 6.1571 0.157062 0.322081 -0.0165302 -0.451799 0.369427 -0.104545 
96 7.0782 2.62208 6.13714 -0.0469051 -0.24 -0.127112 -0.765093 1.20916 -1.33977 
95 6.33478 3.81595 6.11323 0.0251003 -0.128493 0.0383694 -0.175695 -0.668089 0.447786 
128 8.46415 7.57482 6.09411 0.0506712 0.292105 0.0196049 0.826839 1.07272 0.18013 
94 4.90868 3.7052 6.09765 0 0 0 0 0 0 
111 4.90868 6.16519 6.09765 0 0 0 0 0 0 
82 4.90868 1.2452 6.09765 0 0 0 0 0 0 
85 8.5682 0.34998 6.25112 0.00627443 0.0769621 -0.0364621 0.346874 0.745931 -0.471525 
83 6.34877 1.37021 6.108 -0.0542945 -0.0581252 0.00654873 0.464276 0.544538 1.07994 
89 12.8895 0.548765 6.24602 -0.0619936 0.0941502 -0.00583377 -0.201859 0.997247 -0.997506 
118 11.3619 5.27224 6.1756 0.00848392 0.025725 -0.0752484 -0.140812 0.725647 0.292773 
119 13.5278 4.16009 6.17062 -0.0825058 0.188349 0.0477793 -0.660005 0.119509 0.698784 
88 10.7064 1.63376 6.14786 -0.109834 -0.205647 -0.0500266 -1.06863 -0.674204 0.762821 
106 13.6086 1.75665 6.14771 0.00713353 -0.385162 0.0421772 0.356132 0.308954 0.522741 
102 12.8348 2.93029 6.16438 0.104173 0.330847 0.0521958 0.335758 -0.0354339 1.28946 
98 9.30351 1.55244 6.1633 0.140614 -0.426326 0.138544 -0.244435 -0.0978174 0.326141 
126 6.32511 8.70974 6.1049 -0.0207044 -0.352251 -0.132373 0.832242 -0.441602 0.86326 
7 10.5975 8.89771 6.12094 -0.0865433 -0.237771 -0.0080349 -0.222038 1.35537 -1.38092 
285 19.0909 16.4389 6.11419 -0.249733 0.0777497 -0.0287484 0.35019 -0.796861 -0.750797 
200 17.6841 13.9686 6.15266 0.255889 -0.0708246 -0.0563595 0.851543 -0.113987 -0.85563 
199 15.547 15.1199 6.11929 -0.0844722 0.0441484 0.00362277 0.846777 0.292327 -1.26541 
196 19.1029 14.0173 6.1435 -0.18111 0.131492 -0.0897306 1.0302 -0.75973 0.0878642 
195 16.9609 15.1702 6.12737 -0.0352898 0.0406078 -0.0145997 0.306666 -1.00169 -0.261667 
194 14.8239 16.3278 6.08586 0.0870371 -0.03785 0.0825542 0.128032 -0.183124 0.353007 
143 8.4456 14.9067 6.09912 -0.00676271 -0.0115704 -0.0283579 -0.452233 1.49061 -0.655779 
142 7.03567 14.8478 6.09474 -0.185232 0.122165 0.118734 -0.186537 0.327482 0.113651 
138 6.32638 13.6149 6.10333 -0.142222 -0.300873 -0.0822512 0.548999 0.439704 0.00147421 
68 9.15092 16.1392 6.10127 0.383026 0.207761 0.0404629 0.217493 0.359416 0.589732 
60 17.7131 11.5533 6.14959 -0.196971 -0.0976915 -0.0143767 0.842003 1.13705 0.944079 
59 15.5642 12.6954 6.14332 -0.339908 -0.0110608 0.0669145 0.261211 -1.29563 -0.458888 
58 13.4202 13.849 6.13689 -0.099764 -0.360005 -0.0557527 -0.194883 0.539552 -0.364682 
56 19.1269 11.6031 6.15093 -0.247619 -0.233024 -0.0751929 -1.35593 0.391282 0.124875 
55 16.9738 12.748 6.15422 0.258413 0.1645 0.027044 0.156755 1.16911 0.479048 
54 14.8311 13.897 6.15334 0.325733 0.192157 -0.116566 0.931048 1.7473 1.02009 
53 12.6991 15.0544 6.11333 0.00279664 -0.108947 -0.0131968 0.426146 1.73062 -1.55531 
52 10.5683 16.2081 6.09636 -0.153267 -0.397211 -0.0483956 0.985566 1.10871 -0.583332 
51 6.31929 16.0643 6.11578 0.153838 -0.0544729 -0.0867221 -1.46998 -0.519658 -1.03361 
43 17.7277 9.13602 6.13786 0.216677 -0.135627 -0.0293707 0.217844 -0.0133695 0.146026 
42 15.5861 10.2758 6.12319 -0.21885 -0.0363111 0.0799618 1.63083 -0.464773 0.244717 
40 11.2948 12.5478 6.09803 0.233485 0.217592 0.0337554 -0.0605298 0.308533 0.316529 
39 19.1445 9.18566 6.12049 -0.149735 0.26779 0.121044 1.27091 0.534516 1.01346 
38 16.9978 10.3358 6.12586 0.148792 -0.074952 0.105817 1.31058 -0.724387 0.783576 
26 13.4569 8.99136 6.1342 0.221085 -0.101863 -0.016936 0.169277 1.23379 0.201499 
22 14.8781 9.05116 6.12933 -0.295909 0.250298 0.0149595 0.946633 0.0935084 -0.207469 
8 12.7424 7.76914 6.13504 0.110699 0.195194 0.0730467 1.66802 -0.306463 0.346974 
12 11.3288 7.69545 6.14018 -0.0225246 0.0670349 -0.0858979 -0.957442 0.705716 0.112771 
23 17.0283 7.90981 6.16037 -0.318152 0.458391 -0.077561 1.07194 -0.521239 -0.882248 
27 15.6103 7.85736 6.154 0.0875904 -0.138449 0.00829619 -0.170162 0.852908 0.15417 
289 17.6738 16.3875 6.10482 0.219549 -0.0112881 0.0640991 0.256866 -0.669899 -0.00638243 
144 9.15574 13.6899 6.10284 0.442907 0.195948 -0.014645 0.799558 -0.188139 -0.209718 
140 8.45079 12.4589 6.09418 -0.0559824 0.0370683 -0.014646 0.208867 -0.618681 0.661693 
139 7.04068 12.3951 6.09884 -0.164387 0.101243 -0.0161747 1.05265 0.97151 -2.2232 
57 11.2872 14.993 6.10453 -0.145684 -0.0497167 0.0305979 1.59944 0.587422 0.247789 
41 13.4415 11.4162 6.12666 -0.280732 0.0159312 -0.0685262 -0.932863 -0.366901 -0.138524 
135 8.45683 10.0252 6.09766 -0.0427189 -0.496167 -0.0322308 -0.0598627 -0.789377 1.41175 
134 7.04236 9.94434 6.08464 0.0266869 0.086286 0.0326847 -0.112985 -0.829435 0.763508 
133 6.32663 11.1611 6.08374 -0.162392 -0.185349 0.106066 0.0251269 0.868652 0.288891 
136 9.18232 8.81293 6.10879 -0.167777 0.0174675 -0.0836732 0.834439 -0.610459 0.285807 
20 10.5841 11.3256 6.10122 -0.125333 -0.169386 -0.0571698 -0.306735 -0.102117 0.716158 
141 9.16957 11.25 6.07717 0.194085 0.218288 0.179524 0.16248 0.694132 0.149855 
21 12.7286 10.1925 6.12204 -0.214881 0.0339434 0.0220524 0.687001 -0.919163 -0.499558 
25 11.3089 10.1222 6.10304 0.31278 -0.0220023 0.0759006 -0.746231 2.23946 0.625777 
35 10.5759 13.7575 6.10504 -0.193331 0.165936 -0.0110665 0.329417 -0.127872 0.749428 
36 12.7098 12.6192 6.11185 0.0880384 -0.0141489 0.117097 -0.749406 -0.536915 0.213898 
37 14.8497 11.4749 6.13901 0.335345 0.0220551 -0.0371524 0.085316 1.27002 -0.651161 
192 10.5701 18.6455 6.10037 -0.0248509 -0.137204 -0.00615062 -0.422426 0.401897 0.598271 
311 11.27 22.3117 6.14804 0.216149 0.269127 -0.0658945 -0.706245 -0.0959074 0.711487 
66 7.0269 17.2986 6.12169 0.152931 0.10379 -0.0524346 -0.0892833 -0.373111 0.615584 
302 16.9373 20.0271 6.11886 0.403246 -0.194358 -0.0129421 -0.0496127 -1.22455 0.889817 
208 8.44568 19.802 6.09851 -0.259021 0.42926 0.0109554 0.472088 1.38915 1.24476 
209 9.15425 18.5918 6.09449 0.150475 -0.371816 0.0750681 -0.995294 0.636824 -0.180372 
281 10.5603 21.0929 6.11635 0.149453 -0.532533 0.178479 0.963872 0.990021 -0.609059 
286 11.2803 19.8756 6.12697 -0.0914413 0.0233574 -0.0958663 -0.757696 0.0592883 1.3637 
287 13.4111 18.7044 6.11616 -0.0913722 0.382074 -0.0652638 -0.820657 1.36022 0.594025 
288 15.5341 17.5507 6.08677 0.428127 -0.184799 0.0866061 -0.18573 1.19392 0.697997 
330 11.2738 24.7578 6.14026 -0.185663 -0.103647 -0.135466 -1.18928 0.519845 -0.926581 
328 12.6822 24.7965 6.10675 0.216117 0.0588695 0.110412 -0.644168 0.558167 -0.311385 
206 6.31897 20.9734 6.10039 0.145301 0.0506327 0.0829444 -0.485208 0.285544 -0.198091 
361 19.7883 24.9447 6.12343 -0.189067 -0.0814199 0.0656922 1.39447 1.1949 -0.550416 
352 17.6507 23.6817 6.11074 0.0522162 0.118422 0.0299707 -0.153374 -0.493636 0.557097 
351 15.5118 24.8558 6.11271 0.541325 -0.284619 -0.0516616 1.1934 0.41452 -0.242255 
348 16.9325 24.8955 6.10482 -0.0764643 0.0188158 0.05507 0.337252 0.38957 0.399182 
341 19.0667 23.7258 6.11866 0.0733823 -0.176819 4.67916e-05 0.617375 -0.668879 -0.0875567 
332 15.5309 22.4228 6.12729 -0.408297 -0.403 0.0102148 0.15505 -0.0281363 0.752811 
331 13.3955 23.581 6.12497 0.0622088 0.0476461 0.0961183 -0.0343971 0.877066 -0.770536 
329 14.8099 23.6242 6.13448 -0.131896 0.368181 -0.0596709 0.98938 -0.464469 -0.633159 
323 17.6493 21.2496 6.11 0.354581 0.0999287 0.0476266 -0.894708 -0.279458 -0.257837 
322 19.0729 21.2944 6.10927 -0.501709 0.0442665 -0.0702805 0.955075 0.769857 -1.28208 
321 16.9311 22.464 6.11673 0.632456 -0.102863 0.0096112 -0.609446 1.02003 0.674239 
320 9.1467 23.4893 6.14507 0.187853 0.0171175 -0.0097605 1.5766 -1.17102 0.574808 
319 8.44659 24.7105 6.11793 -0.329641 -0.227355 0.0038875 0.426278 0.256181 0.858729 
318 7.03089 24.6599 6.11912 0.145301 0.347989 -0.0148429 0.563661 -0.144902 -0.81699 
312 13.4042 21.1516 6.12684 0.00992554 -0.405411 0.0573278 -0.780223 -0.152118 0.832248 
310 12.6842 22.3561 6.14641 -0.0616828 0.251672 -0.102643 -0.351514 0.421257 -0.206291 
309 10.5587 23.5291 6.15384 0.167749 0.113282 -0.0472139 0.669832 0.0329028 -0.481866 
305 17.6596 18.8137 6.08347 0.114713 0.248487 0.151202 -0.915702 -0.40493 0.53237 
304 15.5328 19.9793 6.13904 -0.331738 0.297566 -0.149526 -0.18083 0.370705 0.520061 
306 19.799 17.6587 6.11691 0.266204 0.220445 -0.0738983 -1.7969 0.178857 -0.952735 
324 19.7895 20.0885 6.07999 0.298487 -0.128937 0.0696067 -1.71337 0.00822225 0.0136348 
303 19.0766 18.8688 6.10004 -0.0919828 -0.228164 -0.0398079 -0.0658505 -0.387515 0.493886 
342 19.7881 22.511 6.11465 -0.182596 0.274483 0.0536759 -0.183952 -0.320782 0.698958 
301 14.8183 21.1975 6.13008 -0.0072281 -0.15193 0.0676692 0.375371 -0.543207 0.0553174 
294 8.44281 22.2591 6.12891 -0.275731 -0.194662 0.0502214 -1.18685 -0.555798 0.765052 
292 6.32473 23.429 6.10973 -0.227001 -0.0494778 0.0368615 -0.0591812 -0.467325 0.653162 
284 16.9519 17.5891 6.09017 -0.252768 0.29887 -0.0649089 -0.699103 0.620284 0.847898 
283 14.8228 18.7585 6.11803 -0.232072 0.0555008 0.00436927 1.45659 1.44959 1.06267 
282 12.6949 19.9205 6.12664 0.0448815 0.103678 4.7475e-05 0.394064 0.273531 0.504036 
137 4.90868 13.5452 6.09765 0 0 0 0 0 0 
132 4.90868 11.0852 6.09765 0 0 0 0 0 0 
125 4.90868 8.62519 6.09765 0 0 0 0 0 0 
50 4.90868 16.0052 6.09765 0 0 0 0 0 0 
198 13.4132 16.2741 6.08618 -0.127912 0.15702 -0.0314239 0.904553 0.0837435 0.154985 
64 4.90868 18.4652 6.09765 0 0 0 0 0 0 
295 9.15001 21.0387 6.12742 -0.0168335 0.016659 -0.108022 0.488362 -0.493208 -0.631092 
293 7.0268 22.206 6.13344 0.211472 0.109498 -0.141697 1.36649 -0.588247 0.360143 
291 4.90868 23.3852 6.09765 0 0 0 0 0 0 
205 4.90868 20.9252 6.09765 0 0 0 0 0 0 
67 8.44197 17.3579 6.11348 -0.056453 -0.0685004 -0.0722788 0.707851 0.659502 0.132429 
193 12.6937 17.4865 6.07803 0.27179 -0.227588 0.123938 -0.214546 -0.435797 1.80614 
197 11.2874 17.4287 6.08243 -0.375268 0.24632 0.0348863 -0.179964 0.864277 0.290526 
207 7.02982 19.7546 6.09518 0.0348132 -0.0619651 0.108964 -0.35169 0.361914 -0.510868 
65 6.32313 18.5196 6.12576 -0.15795 0.00914673 -0.106163 0.066044 -0.782106 0.334732 
210 10.5552 30.8775 6.13716 0.292155 -0.0566216 -0.150271 -0.399566 0.144085 0.793846 
381 9.15226 33.2958 6.10606 -0.0579249 0.184802 0.0172839 0.216385 -0.211013 -1.64444 
216 10.5676 33.3282 6.10823 -0.0279471 -0.208878 -0.0291139 -0.568989 0.695004 -0.437021 
217 12.6868 32.1371 6.1132 -0.0826112 -0.0964688 0.00947397 -0.0773355 0.215009 1.05234 
374 9.14328 30.8419 6.11312 -0.00501748 0.044261 0.0793753 -1.07594 -0.375134 -1.40167 
221 11.2775 32.0997 6.11367 -0.442915 0.318017 0.0706006 -0.666075 -0.553238 -0.550353 
359 8.44528 29.6044 6.11787 -0.273575 0.425756 0.016167 0.247517 -0.966508 1.40858 
218 14.8084 30.9523 6.1059 -0.343262 -0.0811734 -0.0349521 -0.204069 -1.25502 -0.74672 
219 16.9323 29.7684 6.05809 0.27225 0.288696 0.0650431 0.137257 0.514835 -0.319875 
363 11.2703 29.6569 6.12218 -0.142171 -0.0954269 0.0497552 -0.645258 0.591374 0.22532 
222 13.3882 30.9184 6.11722 0.630176 0.0555498 -0.073681 -2.18033 0.146964 -0.613709 
223 15.5221 29.7401 6.0685 -0.232719 -0.34096 0.114847 -0.890423 1.57915 0.661556 
224 17.6476 28.5554 6.07225 0.182943 0.0422964 -0.0953015 -1.70959 0.66759 -0.314564 
212 14.81 28.5096 6.08063 -0.257608 0.0219155 0.0822791 -0.553376 -1.60364 1.30012 
345 10.5599 28.4225 6.13113 0.134584 0.346888 -0.0403571 0.673736 -0.603167 -0.688445 
214 19.0681 26.1532 6.12006 -0.0203842 0.0715478 -0.0587778 -0.318535 -0.815639 -0.842459 
366 17.6543 26.1173 6.09922 -0.115913 -0.110816 -0.00666864 0.891191 -1.20207 0.577682 
220 19.0628 28.5923 6.07201 0.042573 -0.180592 0.0380058 -0.0599914 0.570636 0.452171 
364 13.3872 28.4707 6.10752 0.474781 0.0112593 -0.125489 -0.267788 -0.369121 -0.0891037 
232 16.9355 32.2032 6.09457 -0.127788 0.327948 -0.0549744 -0.484239 0.139466 0.568337 
349 11.2728 27.2088 6.11302 -0.10641 -0.373642 0.0181988 0.429565 0.391513 -0.650382 
347 14.8071 26.066 6.06489 -0.00819668 0.270072 0.267773 -0.0437772 -1.72963 -0.575544 
346 12.6854 27.238 6.10496 0.0358477 0.236196 -0.0190196 0.790507 0.00407229 -0.0177991 
233 19.0671 31.0204 6.04488 -0.0522651 0.183728 0.011905 0.323345 0.413203 0.00573627 
253 19.7775 32.2454 6.05051 0.296117 -0.118035 -0.0316571 -0.462002 0.880824 0.379217 
225 19.7786 27.3757 6.11221 0.198169 0.135104 -0.0348826 1.04468 0.0962867 -0.842945 
327 10.5639 25.9767 6.11585 0.128475 0.107305 -0.0381311 -1.30556 0.789719 -0.590773 
238 19.7832 29.8075 6.04513 -0.103776 -0.0318376 0.0178152 0.227093 -0.0969203 -0.422446 
237 17.6515 30.9949 6.05761 0.010892 -0.447405 0.0679431 0.399357 -0.845801 0.172437 
236 15.5209 32.1704 6.10696 -0.0839776 0.431932 0.0250316 -0.800753 1.58384 0.130652 
211 12.6869 29.6948 6.10159 -0.419956 -0.28494 0.125114 -1.02961 0.356878 0.328494 
231 14.8012 33.3925 6.10697 0.507876 -0.11291 -0.0254992 0.238031 0.773048 -0.561638 
235 13.393 33.3605 6.10347 -0.160754 0.27757 -0.0799781 -1.38565 -0.759444 0.448804 
317 6.32749 25.8871 6.12934 -0.362956 -0.234371 -0.13121 -0.978686 -0.702338 0.0500528 
338 7.02892 27.1189 6.13349 0.127467 0.116853 -0.126126 1.08562 0.354044 -1.40912 
339 8.44387 27.1574 6.10788 -0.129747 -0.0319287 0.0889021 -0.948268 -0.598667 0.557279 
340 9.15258 25.9375 6.09957 0.0109644 0.127615 0.0948742 0.529771 -1.12939 0.0489908 
360 9.14619 28.3876 6.12452 0.267643 -0.181273 -0.0389739 -0.803304 -1.43329 1.10715 
350 13.3988 26.0216 6.10067 -0.316305 0.0555925 -0.0571098 -0.292684 1.23494 -0.788597 
378 6.32871 35.7092 6.10517 -0.17559 0.335066 -0.0634523 0.730913 0.901516 -0.106141 
383 6.32251 38.1744 6.08369 -0.0172176 -0.0148004 0.054574 -0.800072 -0.379545 0.270062 
384 7.03166 36.9504 6.08237 -0.139524 -0.220959 0.00453405 0.352284 -0.880916 0.69742 
229 10.5649 35.7809 6.0557 0.226315 0.0218318 0.0222987 -0.0328301 1.28822 0.520698 
230 12.6865 34.5862 6.06287 -0.0506053 -0.26696 0.119711 -0.766379 0.468707 0.225548 
234 11.2734 34.557 6.07399 -0.0457117 0.0973997 -0.0310292 0.432094 0.186732 0.402159 
385 8.44528 36.981 6.06274 0.023464 -0.367739 0.061874 0.913664 1.03514 -0.010169 
249 11.2763 37.0118 6.03954 -0.267047 -0.12664 0.136239 0.582045 -0.0265768 0.124007 
386 9.15432 35.7517 6.0612 -0.148375 0.276363 0.0236804 -0.255779 -0.632492 -0.285678 
277 9.14715 40.66 6.11096 -0.0724924 0.0486804 0.00182094 0.288897 0.90178 0.5572 
276 8.43918 41.8875 6.12256 -0.0448815 -0.365487 0.0491613 0.0477537 0.706409 0.507863 
266 11.2771 39.4564 6.06791 -0.25368 0.118482 0.0541661 0.389597 -0.323562 0.149804 
387 7.02364 39.4081 6.09314 0.175978 0.104191 0.0865639 0.379446 -0.453913 -0.265541 
388 8.44294 39.4316 6.09651 -0.219479 -0.143294 -0.0740823 1.60325 0.620264 0.159098 
389 9.14926 38.2057 6.06291 0.186873 0.29203 0.0422697 0.456738 -0.647888 -0.0888427 
261 10.5593 40.6769 6.09861 0.269981 -0.0947211 -0.0366603 -0.710385 -0.127133 0.547994 
260 6.32174 40.639 6.11793 0.0188433 -0.351313 -0.107645 0.28671 0.737158 1.1432 
244 10.5653 38.2337 6.06343 -0.0657251 -0.140947 -0.0449197 0.652492 -0.78186 -0.770145 
251 15.5153 34.6201 6.07804 0.0509236 -0.13787 0.0203427 -0.119072 1.71655 -0.260226 
371 6.32774 33.2542 6.11331 -0.32714 0.349298 0.0134445 0.260039 -0.543508 0.347605 
370 4.90868 33.2252 6.09765 0 0 0 0 0 0 
213 16.9408 27.3328 6.06587 -0.265194 -0.197803 0.0997255 -0.669388 -0.232352 0.989053 
356 4.90868 30.7652 6.09765 0 0 0 0 0 0 
336 4.90868 28.3052 6.09765 0 0 0 0 0 0 
316 4.90868 25.8452 6.09765 0 0 0 0 0 0 
252 17.6414 33.431 6.09863 0.293398 -0.168105 -0.0252644 0.570514 0.0593801 1.00048 
248 19.0631 33.4585 6.10071 -0.373549 -0.210936 -0.154997 0.327238 0.664935 0.136903 
372 7.02507 32.0332 6.12491 0.190756 -0.110572 0.025612 0.107516 -0.313016 -0.414299 
337 6.32076 28.3435 6.11045 0.182011 0.0370185 0.0798913 -0.520969 0.0144927 0.463166 
357 6.32365 30.8008 6.14324 -0.151317 0.018912 -0.20636 0.658757 0.606643 0.858667 
373 8.43917 32.0678 6.11343 -0.0273088 -0.0998007 -0.00294205 0.342674 -0.37837 0.319594 
358 7.03068 29.5805 6.13302 -0.0689121 -0.379641 -0.0702222 0.165905 0.471207 0.413444 
365 15.522 27.2913 6.0921 0.0825826 -0.0191266 -0.200309 0.710484 -0.130131 0.699297 
275 7.02591 41.8658 6.12011 0.0893032 -0.133841 0.00423328 0.983835 -1.53326 1.05363 
269 17.6516 35.8655 6.06228 -0.29097 0.0391468 0.0326202 0.641087 0.26301 -1.24019 
267 13.3989 38.2638 6.06215 0.00812767 -0.27947 -0.0864104 0.352134 -0.368869 0.382854 
265 19.0617 35.8889 6.06587 0.174943 -0.0475765 -0.0119843 0.900468 -0.773516 -0.708713 
783 12.6849 41.9252 6.08795 -0.0962379 0.0757157 -0.026222 -0.142387 -0.375359 1.37752 
784 14.8027 40.7253 6.0389 0.31703 0.153653 0.0143033 0.27611 0.219364 0.468028 
262 12.6891 39.478 6.06745 -0.0931272 0.259912 0.0451856 0.556074 -0.241363 -0.517459 
787 11.2687 41.9016 6.09638 0.0708086 0.03232 0.0705682 0.0758526 -1.34396 1.11421 
788 13.3933 40.7058 6.07075 -0.105583 -0.0912808 -0.0691385 0.236392 -0.842735 -0.0165157 
790 17.6522 38.3011 6.03155 -0.112332 0.419097 0.0221761 1.20265 0.373572 0.447739 