ITEM: TIMESTEP
2700
ITEM: NUMBER OF ATOMS
4798
ITEM: BOX BOUNDS ff ff ff
-10.3577 110.358
-10.0998 131.9
-100.402 112.598
ITEM: ATOMS id x y z fx fy fz vx vy vz 
72 -0.062301 2.4752 6.09765 0 0 0 0 0 0 
110 4.19854 7.39519 6.09765 0 0 0 0 0 0 
109 2.77826 7.39519 6.09765 0 0 0 0 0 0 
93 4.19854 4.9352 6.09765 0 0 0 0 0 0 
92 2.77826 4.9352 6.09765 0 0 0 0 0 0 
91 2.06812 6.16519 6.09765 0 0 0 0 0 0 
87 0.647839 6.16519 6.09765 0 0 0 0 0 0 
86 -0.062301 7.39519 6.09765 0 0 0 0 0 0 
81 4.19854 2.4752 6.09765 0 0 0 0 0 0 
80 2.77826 2.4752 6.09765 0 0 0 0 0 0 
79 2.06812 3.7052 6.09765 0 0 0 0 0 0 
78 0.647839 3.7052 6.09765 0 0 0 0 0 0 
77 -0.062301 4.9352 6.09765 0 0 0 0 0 0 
76 4.19854 0.015197 6.09765 0 0 0 0 0 0 
75 2.77826 0.015197 6.09765 0 0 0 0 0 0 
74 2.06812 1.2452 6.09765 0 0 0 0 0 0 
73 0.647839 1.2452 6.09765 0 0 0 0 0 0 
6 -0.062301 12.3152 6.09765 0 0 0 0 0 0 
131 4.19854 12.3152 6.09765 0 0 0 0 0 0 
130 2.77826 12.3152 6.09765 0 0 0 0 0 0 
124 4.19854 9.85519 6.09765 0 0 0 0 0 0 
123 2.77826 9.85519 6.09765 0 0 0 0 0 0 
122 2.06812 11.0852 6.09765 0 0 0 0 0 0 
117 0.647839 11.0852 6.09765 0 0 0 0 0 0 
108 2.06812 8.62519 6.09765 0 0 0 0 0 0 
100 0.647839 8.62519 6.09765 0 0 0 0 0 0 
99 -0.062301 9.85519 6.09765 0 0 0 0 0 0 
34 4.19854 14.7752 6.09765 0 0 0 0 0 0 
33 2.77826 14.7752 6.09765 0 0 0 0 0 0 
32 2.06812 16.0052 6.09765 0 0 0 0 0 0 
31 0.647839 16.0052 6.09765 0 0 0 0 0 0 
19 2.06812 13.5452 6.09765 0 0 0 0 0 0 
18 0.647839 13.5452 6.09765 0 0 0 0 0 0 
17 -0.062301 14.7752 6.09765 0 0 0 0 0 0 
300 4.19854 24.6152 6.09765 0 0 0 0 0 0 
299 2.77826 24.6152 6.09765 0 0 0 0 0 0 
204 4.19854 22.1552 6.09765 0 0 0 0 0 0 
203 2.77826 22.1552 6.09765 0 0 0 0 0 0 
202 2.06812 23.3852 6.09765 0 0 0 0 0 0 
191 0.647839 23.3852 6.09765 0 0 0 0 0 0 
190 -0.062301 24.6152 6.09765 0 0 0 0 0 0 
71 2.06812 20.9252 6.09765 0 0 0 0 0 0 
70 0.647839 20.9252 6.09765 0 0 0 0 0 0 
69 -0.062301 22.1552 6.09765 0 0 0 0 0 0 
63 4.19854 19.6952 6.09765 0 0 0 0 0 0 
62 2.77826 19.6952 6.09765 0 0 0 0 0 0 
49 4.19854 17.2352 6.09765 0 0 0 0 0 0 
48 2.77826 17.2352 6.09765 0 0 0 0 0 0 
47 2.06812 18.4652 6.09765 0 0 0 0 0 0 
46 0.647839 18.4652 6.09765 0 0 0 0 0 0 
45 -0.062301 19.6952 6.09765 0 0 0 0 0 0 
30 -0.062301 17.2352 6.09765 0 0 0 0 0 0 
355 4.19854 31.9952 6.09765 0 0 0 0 0 0 
354 2.77826 31.9952 6.09765 0 0 0 0 0 0 
353 2.06812 33.2252 6.09765 0 0 0 0 0 0 
344 0.647839 33.2252 6.09765 0 0 0 0 0 0 
335 4.19854 29.5352 6.09765 0 0 0 0 0 0 
334 2.77826 29.5352 6.09765 0 0 0 0 0 0 
333 2.06812 30.7652 6.09765 0 0 0 0 0 0 
326 0.647839 30.7652 6.09765 0 0 0 0 0 0 
325 -0.062301 31.9952 6.09765 0 0 0 0 0 0 
315 4.19854 27.0752 6.09765 0 0 0 0 0 0 
314 2.77826 27.0752 6.09765 0 0 0 0 0 0 
313 2.06812 28.3052 6.09765 0 0 0 0 0 0 
308 0.647839 28.3052 6.09765 0 0 0 0 0 0 
307 -0.062301 29.5352 6.09765 0 0 0 0 0 0 
298 2.06812 25.8452 6.09765 0 0 0 0 0 0 
297 0.647839 25.8452 6.09765 0 0 0 0 0 0 
296 -0.062301 27.0752 6.09765 0 0 0 0 0 0 
215 -0.062301 36.9152 6.09765 0 0 0 0 0 0 
376 4.19854 36.9152 6.09765 0 0 0 0 0 0 
375 2.77826 36.9152 6.09765 0 0 0 0 0 0 
369 4.19854 34.4552 6.09765 0 0 0 0 0 0 
368 2.77826 34.4552 6.09765 0 0 0 0 0 0 
367 2.06812 35.6852 6.09765 0 0 0 0 0 0 
362 0.647839 35.6852 6.09765 0 0 0 0 0 0 
343 -0.062301 34.4552 6.09765 0 0 0 0 0 0 
258 4.19854 41.8352 6.09765 0 0 0 0 0 0 
257 2.77826 41.8352 6.09765 0 0 0 0 0 0 
256 2.06812 43.0652 6.09765 0 0 0 0 0 0 
255 0.647839 43.0652 6.09765 0 0 0 0 0 0 
243 4.19854 39.3752 6.09765 0 0 0 0 0 0 
242 2.77826 39.3752 6.09765 0 0 0 0 0 0 
241 2.06812 40.6052 6.09765 0 0 0 0 0 0 
240 0.647839 40.6052 6.09765 0 0 0 0 0 0 
239 -0.062301 41.8352 6.09765 0 0 0 0 0 0 
228 2.06812 38.1452 6.09765 0 0 0 0 0 0 
227 0.647839 38.1452 6.09765 0 0 0 0 0 0 
226 -0.062301 39.3752 6.09765 0 0 0 0 0 0 
254 -0.062301 44.2952 6.09765 0 0 0 0 0 0 
905 4.19854 51.6752 6.09765 0 0 0 0 0 0 
904 2.77826 51.6752 6.09765 0 0 0 0 0 0 
890 4.19854 49.2152 6.09765 0 0 0 0 0 0 
889 2.77826 49.2152 6.09765 0 0 0 0 0 0 
888 2.06812 50.4452 6.09765 0 0 0 0 0 0 
887 0.647839 50.4452 6.09765 0 0 0 0 0 0 
886 -0.062301 51.6752 6.09765 0 0 0 0 0 0 
794 4.19854 46.7552 6.09765 0 0 0 0 0 0 
793 2.77826 46.7552 6.09765 0 0 0 0 0 0 
792 2.06812 47.9852 6.09765 0 0 0 0 0 0 
781 0.647839 47.9852 6.09765 0 0 0 0 0 0 
780 -0.062301 49.2152 6.09765 0 0 0 0 0 0 
280 2.06812 45.5252 6.09765 0 0 0 0 0 0 
279 0.647839 45.5252 6.09765 0 0 0 0 0 0 
278 -0.062301 46.7552 6.09765 0 0 0 0 0 0 
272 4.19854 44.2952 6.09765 0 0 0 0 0 0 
271 2.77826 44.2952 6.09765 0 0 0 0 0 0 
959 4.19854 59.0552 6.09765 0 0 0 0 0 0 
958 2.77826 59.0552 6.09765 0 0 0 0 0 0 
957 2.06812 60.2852 6.09765 0 0 0 0 0 0 
952 0.647839 60.2852 6.09765 0 0 0 0 0 0 
945 4.19854 56.5952 6.09765 0 0 0 0 0 0 
944 2.77826 56.5952 6.09765 0 0 0 0 0 0 
943 2.06812 57.8252 6.09765 0 0 0 0 0 0 
934 0.647839 57.8252 6.09765 0 0 0 0 0 0 
933 -0.062301 59.0552 6.09765 0 0 0 0 0 0 
925 4.19854 54.1352 6.09765 0 0 0 0 0 0 
924 2.77826 54.1352 6.09765 0 0 0 0 0 0 
923 2.06812 55.3652 6.09765 0 0 0 0 0 0 
916 0.647839 55.3652 6.09765 0 0 0 0 0 0 
915 -0.062301 56.5952 6.09765 0 0 0 0 0 0 
903 2.06812 52.9052 6.09765 0 0 0 0 0 0 
898 0.647839 52.9052 6.09765 0 0 0 0 0 0 
897 -0.062301 54.1352 6.09765 0 0 0 0 0 0 
805 -0.062301 61.5152 6.09765 0 0 0 0 0 0 
966 4.19854 61.5152 6.09765 0 0 0 0 0 0 
965 2.77826 61.5152 6.09765 0 0 0 0 0 0 
862 4.19854 68.8952 6.09765 0 0 0 0 0 0 
861 2.77826 68.8952 6.09765 0 0 0 0 0 0 
848 4.19854 66.4352 6.09765 0 0 0 0 0 0 
847 2.77826 66.4352 6.09765 0 0 0 0 0 0 
846 2.06812 67.6652 6.09765 0 0 0 0 0 0 
845 0.647839 67.6652 6.09765 0 0 0 0 0 0 
844 -0.062301 68.8952 6.09765 0 0 0 0 0 0 
833 4.19854 63.9752 6.09765 0 0 0 0 0 0 
832 2.77826 63.9752 6.09765 0 0 0 0 0 0 
831 2.06812 65.2052 6.09765 0 0 0 0 0 0 
830 0.647839 65.2052 6.09765 0 0 0 0 0 0 
829 -0.062301 66.4352 6.09765 0 0 0 0 0 0 
818 2.06812 62.7452 6.09765 0 0 0 0 0 0 
817 0.647839 62.7452 6.09765 0 0 0 0 0 0 
816 -0.062301 63.9752 6.09765 0 0 0 0 0 0 
1828 4.19854 76.2752 6.09765 0 0 0 0 0 0 
1827 2.77826 76.2752 6.09765 0 0 0 0 0 0 
1826 2.06812 77.5052 6.09765 0 0 0 0 0 0 
1821 0.647839 77.5052 6.09765 0 0 0 0 0 0 
1813 4.19854 73.8152 6.09765 0 0 0 0 0 0 
1812 2.77826 73.8152 6.09765 0 0 0 0 0 0 
1811 2.06812 75.0452 6.09765 0 0 0 0 0 0 
1810 0.647839 75.0452 6.09765 0 0 0 0 0 0 
1809 -0.062301 76.2752 6.09765 0 0 0 0 0 0 
1717 4.19854 71.3552 6.09765 0 0 0 0 0 0 
1716 2.77826 71.3552 6.09765 0 0 0 0 0 0 
1715 2.06812 72.5852 6.09765 0 0 0 0 0 0 
1704 0.647839 72.5852 6.09765 0 0 0 0 0 0 
1703 -0.062301 73.8152 6.09765 0 0 0 0 0 0 
870 2.06812 70.1252 6.09765 0 0 0 0 0 0 
869 0.647839 70.1252 6.09765 0 0 0 0 0 0 
868 -0.062301 71.3552 6.09765 0 0 0 0 0 0 
1728 -0.062301 86.1152 6.09765 0 0 0 0 0 0 
1889 4.19854 86.1152 6.09765 0 0 0 0 0 0 
1888 2.77826 86.1152 6.09765 0 0 0 0 0 0 
1882 4.19854 83.6552 6.09765 0 0 0 0 0 0 
1881 2.77826 83.6552 6.09765 0 0 0 0 0 0 
1880 2.06812 84.8852 6.09765 0 0 0 0 0 0 
1875 0.647839 84.8852 6.09765 0 0 0 0 0 0 
1868 4.19854 81.1952 6.09765 0 0 0 0 0 0 
1867 2.77826 81.1952 6.09765 0 0 0 0 0 0 
1866 2.06812 82.4252 6.09765 0 0 0 0 0 0 
1857 0.647839 82.4252 6.09765 0 0 0 0 0 0 
1856 -0.062301 83.6552 6.09765 0 0 0 0 0 0 
1848 4.19854 78.7352 6.09765 0 0 0 0 0 0 
1847 2.77826 78.7352 6.09765 0 0 0 0 0 0 
1846 2.06812 79.9652 6.09765 0 0 0 0 0 0 
1839 0.647839 79.9652 6.09765 0 0 0 0 0 0 
1838 -0.062301 81.1952 6.09765 0 0 0 0 0 0 
1820 -0.062301 78.7352 6.09765 0 0 0 0 0 0 
1741 2.06812 87.3452 6.09765 0 0 0 0 0 0 
1740 0.647839 87.3452 6.09765 0 0 0 0 0 0 
2677 4.19854 95.9552 6.09765 0 0 0 0 0 0 
2676 2.77826 95.9552 6.09765 0 0 0 0 0 0 
1793 2.06812 94.7252 6.09765 0 0 0 0 0 0 
1792 0.647839 94.7252 6.09765 0 0 0 0 0 0 
1791 -0.062301 95.9552 6.09765 0 0 0 0 0 0 
1785 4.19854 93.4952 6.09765 0 0 0 0 0 0 
1784 2.77826 93.4952 6.09765 0 0 0 0 0 0 
1771 4.19854 91.0352 6.09765 0 0 0 0 0 0 
1770 2.77826 91.0352 6.09765 0 0 0 0 0 0 
1769 2.06812 92.2652 6.09765 0 0 0 0 0 0 
1768 0.647839 92.2652 6.09765 0 0 0 0 0 0 
1767 -0.062301 93.4952 6.09765 0 0 0 0 0 0 
1756 4.19854 88.5752 6.09765 0 0 0 0 0 0 
1755 2.77826 88.5752 6.09765 0 0 0 0 0 0 
1754 2.06812 89.8052 6.09765 0 0 0 0 0 0 
1753 0.647839 89.8052 6.09765 0 0 0 0 0 0 
1752 -0.062301 91.0352 6.09765 0 0 0 0 0 0 
1739 -0.062301 88.5752 6.09765 0 0 0 0 0 0 
2663 -0.062301 98.4152 6.09765 0 0 0 0 0 0 
2808 4.19854 103.335 6.09765 0 0 0 0 0 0 
2807 2.77826 103.335 6.09765 0 0 0 0 0 0 
2806 2.06812 104.565 6.09765 0 0 0 0 0 0 
2799 0.647839 104.565 6.09765 0 0 0 0 0 0 
2788 4.19854 100.875 6.09765 0 0 0 0 0 0 
2787 2.77826 100.875 6.09765 0 0 0 0 0 0 
2786 2.06812 102.105 6.09765 0 0 0 0 0 0 
2781 0.647839 102.105 6.09765 0 0 0 0 0 0 
2780 -0.062301 103.335 6.09765 0 0 0 0 0 0 
2773 4.19854 98.4152 6.09765 0 0 0 0 0 0 
2772 2.77826 98.4152 6.09765 0 0 0 0 0 0 
2771 2.06812 99.6452 6.09765 0 0 0 0 0 0 
2770 0.647839 99.6452 6.09765 0 0 0 0 0 0 
2769 -0.062301 100.875 6.09765 0 0 0 0 0 0 
2675 2.06812 97.1852 6.09765 0 0 0 0 0 0 
2664 0.647839 97.1852 6.09765 0 0 0 0 0 0 
2849 4.19854 110.715 6.09765 0 0 0 0 0 0 
2848 2.77826 110.715 6.09765 0 0 0 0 0 0 
2842 4.19854 108.255 6.09765 0 0 0 0 0 0 
2841 2.77826 108.255 6.09765 0 0 0 0 0 0 
2840 2.06812 109.485 6.09765 0 0 0 0 0 0 
2835 0.647839 109.485 6.09765 0 0 0 0 0 0 
2828 4.19854 105.795 6.09765 0 0 0 0 0 0 
2827 2.77826 105.795 6.09765 0 0 0 0 0 0 
2826 2.06812 107.025 6.09765 0 0 0 0 0 0 
2817 0.647839 107.025 6.09765 0 0 0 0 0 0 
2816 -0.062301 108.255 6.09765 0 0 0 0 0 0 
2798 -0.062301 105.795 6.09765 0 0 0 0 0 0 
2716 4.19854 113.175 6.09765 0 0 0 0 0 0 
2715 2.77826 113.175 6.09765 0 0 0 0 0 0 
2701 2.06812 111.945 6.09765 0 0 0 0 0 0 
2700 0.647839 111.945 6.09765 0 0 0 0 0 0 
2699 -0.062301 113.175 6.09765 0 0 0 0 0 0 
2688 -0.062301 110.715 6.09765 0 0 0 0 0 0 
2712 -0.062301 115.635 6.09765 0 0 0 0 0 0 
3636 4.19854 120.555 6.09765 0 0 0 0 0 0 
3635 2.77826 120.555 6.09765 0 0 0 0 0 0 
3634 2.06812 121.785 6.09765 0 0 0 0 0 0 
3623 0.647839 121.785 6.09765 0 0 0 0 0 0 
2753 2.06812 119.325 6.09765 0 0 0 0 0 0 
2752 0.647839 119.325 6.09765 0 0 0 0 0 0 
2751 -0.062301 120.555 6.09765 0 0 0 0 0 0 
2745 4.19854 118.095 6.09765 0 0 0 0 0 0 
2744 2.77826 118.095 6.09765 0 0 0 0 0 0 
2731 4.19854 115.635 6.09765 0 0 0 0 0 0 
2730 2.77826 115.635 6.09765 0 0 0 0 0 0 
2729 2.06812 116.865 6.09765 0 0 0 0 0 0 
2728 0.647839 116.865 6.09765 0 0 0 0 0 0 
2727 -0.062301 118.095 6.09765 0 0 0 0 0 0 
2714 2.06812 114.405 6.09765 0 0 0 0 0 0 
2713 0.647839 114.405 6.09765 0 0 0 0 0 0 
95 6.33267 3.80935 6.1005 0.328029 -0.186428 0.0220309 -0.030201 -0.0844185 0.137977 
5 19.2897 1.92791 6.14641 -0.102497 0.113906 -0.0998928 0.917771 -0.438789 -0.653847 
96 7.08482 2.61202 6.10785 -0.36975 -0.0824651 -0.0437899 -0.697747 -0.188319 0.918091 
104 17.1692 0.692097 5.84372 0.249364 0.230876 0.0377265 0.856089 -1.04369 -0.161884 
112 6.32996 6.25017 6.10103 -0.0289053 -0.193143 -0.024662 1.25631 0.465185 0.839075 
4 17.1357 3.065 6.10051 -0.33168 0.24661 0.0452348 0.166667 1.09922 0.598014 
121 17.9016 1.88413 6.03735 0.00327406 -0.313825 0.0178254 0.70523 0.173573 0.230204 
90 11.5214 0.462246 5.95362 -0.293542 0.110971 -0.0395876 1.04841 -0.375103 -1.23024 
107 15.8081 0.638168 6.00244 -0.211332 0.084999 0.0167585 1.51037 -2.05997 1.06943 
84 7.19753 0.22764 6.03178 -0.178486 0.201463 0.0436719 -0.455846 -0.359669 -0.463031 
88 10.7029 1.60552 6.08641 0.151447 0.0830105 -0.0575208 0.767272 -1.3501 -0.858208 
94 4.90868 3.7052 6.09765 0 0 0 0 0 0 
111 4.90868 6.16519 6.09765 0 0 0 0 0 0 
82 4.90868 1.2452 6.09765 0 0 0 0 0 0 
85 8.55946 0.329731 6.22487 -0.0403302 0.00832227 0.0439704 -0.1465 0.354213 1.37086 
83 6.34338 1.3634 6.10155 0.303455 -0.13035 -0.0894926 1.2031 0.809405 -1.0361 
89 12.8789 0.528896 6.12315 0.327729 -0.0326537 0.104079 -0.23666 -0.94999 1.33668 
118 11.3789 5.25349 6.10159 -0.558626 0.0239796 -0.0792662 -0.833105 -0.3589 0.134164 
119 13.5404 4.14262 6.11433 0.0603977 -0.125597 0.0254667 -1.19975 -0.902213 -0.695059 
98 9.30734 1.52247 6.14993 -0.152013 0.226747 -0.164893 0.396029 0.372463 -2.42648 
106 13.6113 1.73045 6.11644 -0.0324267 -0.127983 -0.138324 0.567537 -0.154139 -1.05799 
102 12.8409 2.91113 6.12644 -0.0863617 0.360996 -0.0459799 -0.508787 1.02773 -0.392386 
127 7.05055 7.48041 6.10964 0.27545 -0.0257689 0.00459234 -1.15398 -0.487881 -0.637673 
128 8.47002 7.56342 6.10698 0.135642 0.139789 0.0109351 -0.011763 1.44247 -0.34258 
9 14.9155 6.61637 6.09413 -0.194946 0.324523 0.0392135 0.610744 0.973479 0.189425 
10 17.0798 5.48208 6.13692 -0.214514 0.0708983 0.027307 -0.875319 0.32076 0.18708 
97 8.52909 2.7118 6.11367 -0.124844 -0.290296 0.063613 0.338166 0.730219 -0.521817 
129 9.20771 6.36501 6.07642 0.0106363 -0.0813928 0.0704131 -0.14817 -0.123723 1.20391 
101 10.6575 4.03431 6.11112 -0.120351 -0.143492 -0.0467565 -0.32387 -0.250092 -0.0373398 
1 10.6331 6.44696 6.0776 -0.195793 -0.0548187 0.0252516 1.01901 -0.395465 -0.818983 
13 13.496 6.5611 6.09762 0.032996 -0.435822 -0.0946256 0.78324 -0.0153255 1.59642 
103 15.0012 1.79458 6.07171 0.293656 -0.194407 -0.0164063 1.35511 0.718889 0.0605699 
11 19.2348 4.3405 6.20039 0.076101 0.298654 -0.151833 -1.1934 -0.394258 -0.341417 
105 11.4055 2.84432 6.10614 0.22594 -0.202902 0.0746514 1.09166 0.168827 -0.0894155 
14 15.6602 5.4338 6.12104 0.184674 -0.464901 0.0319012 0.391967 -2.02804 -0.508132 
15 17.8226 4.29088 6.1616 0.0875164 0.0620265 -0.0922159 -1.19293 -0.342464 -0.149007 
3 14.961 4.20673 6.11837 -0.215283 0.294652 0.0259543 -1.29416 1.18733 1.77598 
113 7.0588 5.0395 6.09319 0.0851078 0.311049 0.0212439 -0.211992 0.183954 -0.356177 
114 8.48212 5.13896 6.08741 0.104889 -0.289899 -0.00689415 0.50333 0.101513 -0.0832657 
24 19.1907 6.75919 6.14799 0.146741 0.0637568 -0.01858 -1.16451 -0.194373 -0.339738 
115 9.22799 3.94095 6.09986 0.369427 0.428678 -0.0017286 -0.319 0.881297 -1.28304 
120 15.704 3.0227 6.11658 0.408225 -0.38124 -0.0631779 -0.628864 0.495057 0.178497 
28 17.7817 6.70403 6.13096 -0.245966 0.0467209 -0.028695 0.202975 -0.0399765 -1.26613 
2 12.7896 5.3295 6.08237 0.372456 0.225412 0.180537 0.372865 -0.0863558 0.863703 
126 6.33757 8.69114 6.10592 -0.554546 0.383472 -0.0101288 0.0173365 0.226318 0.243901 
319 8.44063 24.6916 6.0811 0.0217611 0.325094 0.169323 0.381885 -0.892959 -0.774438 
20 10.5922 11.297 6.13976 0.0639553 0.22199 0.118038 0.426851 0.61187 -0.348858 
200 17.6957 13.9619 6.14703 -0.289329 0.262568 -0.0516109 -0.169691 -0.962778 0.574783 
40 11.3016 12.5301 6.15434 0.0488215 -0.193129 -0.0335021 0.841525 -0.576144 -0.334488 
51 6.3189 16.0631 6.10852 0.137448 -0.167553 -0.036931 -0.568025 0.147176 0.0404931 
54 14.8467 13.8877 6.15593 -0.506292 -0.246312 0.110308 0.364256 0.0335241 0.613192 
55 16.9827 12.7441 6.13568 -0.0990781 -0.221642 0.098371 -1.08362 0.0207686 0.12139 
143 8.44989 14.8949 6.0981 -0.183135 0.113295 0.0377329 0.72982 0.406418 0.482126 
142 7.03224 14.8422 6.10416 0.138677 0.16261 -0.0193807 -0.251508 -1.55792 -0.281575 
137 4.90868 13.5452 6.09765 0 0 0 0 0 0 
132 4.90868 11.0852 6.09765 0 0 0 0 0 0 
125 4.90868 8.62519 6.09765 0 0 0 0 0 0 
50 4.90868 16.0052 6.09765 0 0 0 0 0 0 
198 13.4181 16.2491 6.16378 -0.307791 0.131297 -0.0397525 -0.370173 0.640196 -1.09456 
64 4.90868 18.4652 6.09765 0 0 0 0 0 0 
295 9.16044 21.0222 6.09841 -0.385253 -0.0402951 0.0093304 1.68931 -0.37318 0.162688 
293 7.03886 22.1963 6.10697 -0.360329 0.0572896 -0.0182978 -1.21858 -1.20824 0.185143 
291 4.90868 23.3852 6.09765 0 0 0 0 0 0 
205 4.90868 20.9252 6.09765 0 0 0 0 0 0 
67 8.44347 17.3366 6.10834 -0.0960893 0.366591 -0.087981 0.252039 -0.59964 1.72565 
193 12.6932 17.4585 6.14905 0.233578 0.116236 0.0336349 -0.413613 -0.892773 -0.479567 
197 11.2807 17.4045 6.13003 -0.0338321 0.151088 0.0131653 -1.01126 -0.834785 -0.434869 
207 7.03626 19.7448 6.11033 -0.278749 0.20838 -0.115273 0.232831 1.95328 -0.979603 
65 6.32404 18.5165 6.0896 -0.154015 -0.103304 0.0580478 0.428944 -0.44693 1.01579 
7 10.6045 8.86506 6.13195 0.062976 0.326815 -0.0766097 0.122647 0.307728 1.29565 
283 14.8233 18.7408 6.15221 0.111085 0.395591 0.020048 0.00801754 0.868027 0.752985 
284 16.9561 17.6001 6.12546 0.0196743 -0.160647 0.0847899 -0.393827 0.137559 -0.560907 
292 6.32296 23.4158 6.10961 0.127082 0.336149 -0.0155618 -0.022732 0.343123 -0.309085 
294 8.44859 22.2444 6.10145 0.107569 -0.268903 -0.0396061 0.151083 -1.80355 -1.25512 
301 14.814 21.1803 6.16515 -0.165758 0.0772413 -0.0394273 -0.453227 0.361341 0.477462 
342 19.7928 22.5134 6.16865 0.0324355 0.0458804 0.0169693 0.124036 1.98022 -0.61587 
303 19.0794 18.8673 6.11635 0.349859 -0.186817 0.0518539 -0.0140259 -1.08159 0.521334 
324 19.798 20.089 6.15463 -0.0632482 -0.116125 -0.15972 -0.154454 0.351131 -0.336146 
282 12.6921 19.8943 6.15076 -0.038839 0.209053 -0.0125791 0.456413 -0.67802 -0.714911 
304 15.5366 19.9693 6.1452 -0.290368 -0.0590852 0.0407022 -0.0645759 -1.22478 1.43338 
305 17.6696 18.8195 6.12317 -0.0494238 -0.167367 0.0462195 0.281336 1.45636 0.252072 
309 10.5624 23.5225 6.11314 0.102808 0.0460725 -0.136321 1.80025 1.10071 1.06004 
310 12.6822 22.3421 6.14777 -0.0854406 0.365706 -0.0169904 0.188612 0.857159 -0.222815 
312 13.3926 21.1286 6.15652 0.423521 -0.0448795 0.00350494 0.0636181 0.000318334 -1.02241 
318 7.02796 24.6572 6.12075 -0.0871186 -0.173225 -0.174755 -0.570352 0.796369 -0.290353 
285 19.0876 16.4362 6.10362 -0.0276704 -0.118865 0.0719088 -0.0647815 0.174805 -0.467757 
320 9.15104 23.4754 6.10689 0.0390116 0.0358517 -0.0531218 0.881048 1.28401 0.796612 
321 16.9419 22.4523 6.17548 -0.0430783 0.181864 0.0248588 0.438018 0.815745 -1.0103 
322 19.0749 21.2979 6.16476 -0.0710661 -0.267219 -0.0046801 -0.559546 0.538152 0.667393 
323 17.6574 21.2439 6.16282 0.281558 0.0179735 -0.0438845 -0.320238 1.27705 -0.379061 
329 14.8164 23.6213 6.15721 -0.598712 0.0281328 0.0331595 0.553902 0.286884 0.649357 
331 13.3908 23.5777 6.1454 0.419712 -0.151073 -0.0404762 0.91802 -0.751986 -0.61225 
332 15.5293 22.4079 6.16773 -0.0700958 -0.078434 0.0342275 0.438816 0.786781 -0.333523 
341 19.0709 23.7218 6.19122 -0.0991247 -0.0879277 -0.103558 -0.00895575 0.845964 0.328512 
348 16.9327 24.8884 6.19122 0.0690909 0.159366 -0.037803 -0.317322 0.112592 -2.12632 
351 15.5199 24.8497 6.1586 0.0708198 -0.031913 0.00324386 -0.60705 -0.9741 -0.488489 
352 17.6539 23.6799 6.1804 0.0234616 -0.233917 0.0990945 1.0298 -0.61209 -0.119649 
361 19.7867 24.9364 6.1889 0.140102 0.242024 -0.015372 1.06579 -0.0961306 -1.14106 
206 6.32095 20.9672 6.10134 0.268501 -0.107949 0.020883 -0.131005 0.0108614 -0.742609 
328 12.6854 24.7992 6.10168 -0.056774 -0.245447 -0.0204335 1.07259 -0.765683 -0.814014 
330 11.2709 24.7576 6.08099 0.0807063 -0.41944 0.0485437 -0.599443 -0.622993 0.708299 
288 15.5465 17.5403 6.16548 -0.22998 -0.381824 -0.169486 -0.493776 1.83644 -1.19109 
287 13.4132 18.686 6.15637 -0.284244 -0.146943 -0.0690261 0.532533 0.563315 1.34128 
286 11.2783 19.8469 6.13406 0.0804001 0.270751 -0.058832 0.362706 -0.530253 -0.324927 
281 10.5685 21.0683 6.11967 0.0914633 -0.173633 -0.0517663 0.842532 1.28132 -0.126405 
209 9.15098 18.5707 6.11307 0.313534 -0.0401693 -0.106414 -0.0838835 1.48153 0.200407 
208 8.4465 19.7885 6.09324 0.036603 0.245348 0.107338 0.0265678 -0.816719 -1.64524 
302 16.9455 20.0205 6.14138 0.184379 0.261788 0.0195792 0.993401 -0.73422 0.803208 
66 7.02964 17.2952 6.09185 0.0314733 -0.103009 0.041231 -0.58355 -0.577698 1.04421 
311 11.2666 22.3016 6.11577 0.351067 -0.0107098 0.0678643 0.308975 0.488403 0.659924 
192 10.5701 18.6237 6.1049 -0.325284 -0.292941 0.141845 0.0396638 0.0844797 0.407762 
37 14.863 11.4632 6.13268 -0.0589571 -0.611772 0.0802163 -0.847343 -0.27912 0.312991 
36 12.7171 12.5975 6.16112 -0.128338 -0.276301 -0.0865151 0.288006 -0.152194 -0.72363 
35 10.578 13.7346 6.13103 -0.00922276 0.324601 -0.00317978 -0.0082653 0.963181 0.184109 
25 11.3209 10.092 6.13316 0.0416249 0.122245 0.0467542 0.613506 -0.0467421 0.559492 
21 12.7393 10.1708 6.12503 -0.281032 -0.149487 -0.0642752 -0.679831 1.3028 0.30912 
141 9.17932 11.2344 6.151 -0.226231 0.194532 -0.160892 -0.239282 0.160775 -1.66025 
199 15.5489 15.1086 6.1795 0.467567 0.118222 -0.13045 0.358436 0.217898 0.0758999 
136 9.18774 8.79676 6.12324 -0.00484568 -0.06858 0.0290787 0.453097 0.0378319 -0.0948432 
133 6.32829 11.1503 6.10638 -0.0475744 -0.0885115 -0.0110482 -0.0120141 0.620762 -1.04518 
134 7.05102 9.93277 6.11843 -0.18931 0.040376 4.38121e-05 0.0373123 -0.53467 -1.01439 
135 8.46553 10.0076 6.12914 -0.0762781 -0.239906 0.0509093 0.233136 1.85341 0.10561 
41 13.4447 11.3919 6.13243 0.214461 0.271095 0.0602214 -0.178131 0.581053 0.789041 
57 11.2845 14.9722 6.13652 0.160211 -0.449024 0.0010366 0.217246 -0.566507 -0.0381382 
139 7.03876 12.3885 6.10412 -0.0911482 -0.0213858 0.0213118 -0.0851476 0.307012 -1.5779 
140 8.45189 12.4468 6.11085 0.308661 -0.0386977 0.0771458 0.994036 0.497841 0.0410782 
144 9.1631 13.6812 6.11186 0.0703274 -0.192274 -0.00839808 0.727902 -0.382815 0.197411 
289 17.6752 16.3917 6.12292 0.139165 0.0407932 0.0818775 -0.471509 -0.0420541 -1.45428 
27 15.6228 7.83528 6.09655 -0.0102716 0.252438 -0.0169998 0.914836 0.224125 0.531532 
23 17.0396 7.89882 6.10544 -0.0627702 0.00184862 0.00697466 0.667451 0.427565 -1.09056 
12 11.3409 7.6725 6.08861 -0.105963 -0.0659776 0.0801064 -0.582115 -0.613195 -0.409613 
8 12.7533 7.75254 6.08413 0.283404 0.061407 -0.0277947 0.3974 -0.180733 -2.1486 
22 14.8872 9.03496 6.09285 0.0417257 -0.0270421 0.0625333 0.603517 1.06457 0.790367 
26 13.4707 8.97381 6.08192 0.00275218 -0.0966254 0.0856082 0.566131 0.655639 -0.659502 
38 17.0073 10.319 6.13974 0.275455 0.0560563 -0.124696 0.252675 0.421168 -0.863786 
39 19.1514 9.17935 6.11978 0.310679 -0.11833 0.0352865 0.166541 0.944193 -0.280429 
196 19.1038 14.0092 6.12415 -0.0214458 0.179343 0.00870878 2.32572 1.08667 0.182756 
42 15.6028 10.2538 6.12697 -0.665774 0.429584 -0.0589116 0.83265 1.27473 -0.261181 
43 17.7423 9.12337 6.11507 -0.0561723 -0.0576936 0.0509116 -0.24931 -0.572945 -0.396622 
195 16.9674 15.1713 6.15947 -0.144238 -0.366196 -0.0388147 0.76449 0.017414 0.196566 
52 10.5678 16.1768 6.12941 0.0247109 0.303684 -0.0930667 -0.0365956 -0.626387 -1.05343 
53 12.6995 15.0263 6.16173 0.139238 -0.0213734 -0.0160362 -0.306822 0.294638 0.197621 
194 14.8276 16.3131 6.16307 0.223489 0.158293 0.081453 0.224306 -1.46663 -0.836398 
138 6.32622 13.6098 6.09055 -0.234016 -0.318491 0.0502332 0.642241 0.685139 -1.01838 
56 19.1212 11.5955 6.12619 0.411244 -0.26248 -0.0307957 -0.275953 0.0869001 -0.0252666 
58 13.4273 13.8186 6.17028 0.146304 0.294477 -0.0124493 -0.574528 2.41967 0.27774 
59 15.566 12.6823 6.15408 0.470964 0.188841 -0.121864 -0.30881 -0.142432 -0.487073 
60 17.7142 11.541 6.13447 -0.284774 -0.0135957 0.0270001 0.441621 0.995657 -0.489665 
68 9.15778 16.1284 6.09086 -0.0922564 -0.296979 0.132722 -0.711096 -1.01729 0.186682 
210 10.5642 30.8779 6.08768 0.269009 -0.493261 0.17165 0.0696508 -1.41568 1.30278 
381 9.15754 33.2887 6.06494 -0.346556 -0.208538 -0.0224296 -0.252183 -0.606148 0.186282 
216 10.5701 33.3208 6.0727 -0.192489 -0.194276 0.155441 -1.11595 0.425184 0.162618 
217 12.6839 32.1317 6.13052 0.251863 -0.094443 0.0375967 -0.880838 -0.146831 -0.226719 
374 9.15587 30.8414 6.10608 -0.179158 -0.207029 -0.0690257 -0.434407 0.740676 -0.423095 
221 11.2747 32.0971 6.11528 -0.0120709 0.338945 -0.122072 0.150813 -0.829638 0.622345 
251 15.5205 34.604 6.15273 0.176399 0.1214 -0.0965745 1.37224 -0.455092 -0.308264 
218 14.8069 30.9513 6.11166 0.154899 -0.643414 0.0370119 0.134285 -0.431376 0.958317 
260 6.31263 40.6259 6.11486 0.281903 -0.0551677 0.0209666 1.12786 -0.339759 0.37732 
261 10.5536 40.6703 6.11618 -0.0842975 -0.134806 -0.053876 -0.948725 -0.840451 -1.45331 
222 13.3988 30.9127 6.11618 -0.375241 -0.0539375 -0.0132683 -0.762632 0.0238489 -0.0712624 
276 8.43712 41.8757 6.12864 -0.389179 -0.198611 0.00558653 -1.14467 -0.181227 0.00287173 
386 9.14423 35.7338 6.07343 0.270626 0.195889 0.123691 -0.738217 -0.0238089 1.16984 
234 11.2692 34.5462 6.09728 0.284314 0.00341621 0.0181286 1.27323 -0.345031 -0.846493 
230 12.6841 34.5702 6.11548 0.0215255 0.275854 0.0313663 0.479323 -0.491767 -0.22705 
214 19.0656 26.1455 6.19587 -0.4514 -0.0492465 0.0259027 0.347674 -0.368298 0.354207 
366 17.6429 26.1139 6.22002 0.400321 -0.377972 -0.134528 -1.64276 -1.00531 0.75325 
229 10.5654 35.7664 6.09526 -0.293576 0.110383 -0.0337613 -1.52221 0.723709 -0.334171 
364 13.392 28.4679 6.09541 0.134115 -0.286641 -0.0200404 0.606927 -0.411694 1.67403 
232 16.9384 32.1917 6.15372 -0.138255 0.348587 -0.153338 -0.845939 -0.387543 1.67666 
384 7.02303 36.9451 6.10348 0.171975 -0.000396871 0.0157375 0.640601 -0.527012 0.170789 
383 6.316 38.1701 6.12396 0.175772 -0.206537 -0.101664 1.15623 0.366938 -0.240323 
378 6.32494 35.7123 6.0828 -0.32743 -0.0770351 0.0984165 -0.266202 -0.947771 0.591947 
235 13.3988 33.3574 6.15022 -0.0692006 -0.235516 -0.0793955 0.928877 -0.732259 0.765494 
253 19.7769 32.2345 6.14325 0.14062 0.122521 -0.0635523 0.231728 0.408304 -0.0337461 
225 19.7694 27.3658 6.17711 0.330764 0.187778 -0.0132046 0.319497 1.70406 -0.479375 
231 14.8143 33.3807 6.14925 -0.103125 -0.0862314 -0.02753 -1.13171 -1.29422 0.026785 
236 15.5267 32.1604 6.1223 -0.074485 0.397574 0.117026 0.84088 -0.475382 0.699517 
371 6.31582 33.249 6.08455 0.37427 0.0628479 0.0727127 1.81629 -1.48983 -0.404241 
789 15.511 39.4949 6.08904 0.116719 0.0592412 0.0127572 -1.07005 -0.309047 -1.5651 
785 16.9261 39.5219 6.1031 0.0611358 -0.217254 0.0914887 0.282691 1.51682 0.351648 
782 10.5536 43.1245 6.09711 0.0490798 -0.0920468 0.0482286 -0.131317 0.443445 0.633083 
263 14.8076 38.2673 6.08251 -0.190456 0.196914 0.0385703 -0.631108 0.622116 0.745763 
799 9.14025 43.1027 6.11762 0.0888603 0.132354 -0.0104016 0.701932 -0.613971 0.198204 
250 13.3948 35.7978 6.10156 -0.0147902 0.0141803 -0.0468949 -0.0332365 0.360657 0.010685 
245 12.686 37.0194 6.0877 0.161056 0.150651 0.0319425 -1.64393 -1.45985 -0.37639 
380 8.43802 34.5052 6.05918 -0.020149 0.0208796 0.0858169 -0.230673 -0.0480359 0.546066 
274 6.31896 43.0859 6.08511 0.0944464 -0.205792 0.121056 1.45006 -0.659667 -0.437627 
379 7.01928 34.4828 6.07459 0.309773 -0.0412103 0.0226109 -0.25124 -0.511674 0.0245546 
264 16.9334 37.0723 6.13665 -0.18637 0.325481 -0.0581877 0.452637 -0.141276 0.626581 
268 15.5159 37.0492 6.09321 0.212626 -0.170836 0.110577 -1.39689 0.215801 -0.0614743 
246 14.8083 35.8206 6.10013 0.0328224 0.0988154 0.0898146 -0.619563 -0.485099 -1.28772 
791 19.7668 37.1097 6.16311 -0.0334514 -0.063551 -0.0187322 -1.38026 -1.21403 -0.104874 
252 17.6419 33.4211 6.13996 0.35864 -0.175685 0.0107314 -0.785645 -1.73612 -0.353572 
248 19.0608 33.4489 6.12819 -0.0922145 0.125331 0.165041 0.878295 0.751279 1.0414 
372 7.03021 32.0249 6.10325 -0.0471791 0.263556 -0.069015 -0.0750902 0.939189 -0.341927 
357 6.32323 30.7985 6.10606 -0.13463 -0.173804 0.0672846 -0.596973 0.320724 1.41009 
786 19.0547 38.3257 6.15135 0.204235 0.15655 0.00748712 0.66657 0.767194 0.297911 
880 19.7729 39.5491 6.12565 -0.414106 -0.00215898 0.0257819 -1.98333 0.135394 0.0806445 
896 19.7725 41.9884 6.08701 0.156123 -0.148807 0.18654 -0.191559 -0.124206 -0.740636 
270 19.7749 34.6747 6.15712 -0.425567 -0.188908 -0.150323 -0.427897 1.52462 1.25279 
247 16.9366 34.6371 6.1578 -0.229467 0.0480812 0.00694858 0.55073 -1.23036 -0.189546 
879 17.6386 40.7419 6.09626 -0.0426393 0.0460523 0.0296565 -0.0684655 -0.52938 0.653155 
373 8.44359 32.0556 6.07309 0.0935739 0.39265 0.0717021 1.6891 -0.0205049 -0.25411 
358 7.02409 29.5726 6.13683 0.463027 0.0157628 -0.14066 -0.0783471 0.434134 0.365531 
875 19.0506 40.7701 6.11489 0.392787 -0.210498 -0.0844009 0.500225 0.223218 1.67028 
275 7.01654 41.8524 6.11962 0.324893 0.313715 -0.077872 -0.12696 0.00655544 -0.32755 
790 17.6437 38.3023 6.15003 -0.27499 -0.00546841 -0.100047 -1.48616 0.0884433 -0.232334 
788 13.3846 40.7105 6.10701 0.147549 -0.651618 -0.0774703 0.205618 1.2494 -0.559036 
787 11.2588 41.8976 6.10139 0.0998144 0.231774 0.0263174 0.367549 0.862581 0.584973 
269 17.6462 35.8597 6.15513 -0.106452 -0.114201 0.00513276 0.192095 -0.361632 0.820562 
784 14.8044 40.7166 6.08448 -0.181755 0.164197 0.0623451 1.33381 0.716614 -0.247933 
783 12.6746 41.9253 6.08865 -0.13846 0.035484 0.0223493 0.915695 -1.59065 -1.00996 
265 19.0554 35.8877 6.17261 0.154756 -0.0226785 -0.0832244 -0.185589 0.713235 1.13115 
267 13.3913 38.2538 6.09011 0.0577056 -0.298074 0.0322338 0.290816 0.186492 1.24738 
259 4.90868 40.6052 6.09765 0 0 0 0 0 0 
370 4.90868 33.2252 6.09765 0 0 0 0 0 0 
213 16.9287 27.3193 6.20148 -0.0322843 0.422042 -0.135772 0.799715 -0.370105 -0.895759 
356 4.90868 30.7652 6.09765 0 0 0 0 0 0 
336 4.90868 28.3052 6.09765 0 0 0 0 0 0 
316 4.90868 25.8452 6.09765 0 0 0 0 0 0 
273 4.90868 43.0652 6.09765 0 0 0 0 0 0 
377 4.90868 35.6852 6.09765 0 0 0 0 0 0 
382 4.90868 38.1452 6.09765 0 0 0 0 0 0 
337 6.32401 28.335 6.10864 -0.0587077 0.286275 0.0680315 -0.0733889 -0.564843 -2.24785 
878 15.5196 41.9434 6.09083 -0.467772 -0.251739 -0.111542 0.0632967 0.768877 0.481827 
877 13.3885 43.1481 6.08655 -0.179543 -0.0027237 -0.076558 -0.613938 -0.304842 1.29359 
874 16.9254 41.9571 6.08674 0.334244 0.127001 -0.0147616 -1.3971 0.360876 -0.0637542 
365 15.517 27.2931 6.13531 0.0429452 -0.379872 0.0692173 0.138499 -0.35153 1.8512 
262 12.6796 39.4714 6.11722 0.30559 0.398606 -0.116186 0.990573 0.257538 -0.0331271 
359 8.4503 29.609 6.12021 -0.464909 -0.098223 -0.0649933 -0.776506 -1.00589 -1.05533 
219 16.9267 29.7553 6.14081 0.305263 0.427448 0.0284972 -0.578458 -0.759242 0.233668 
244 10.5681 38.2185 6.10462 -0.321042 0.0410688 -0.00365582 -0.0972449 0.0484406 1.64697 
363 11.277 29.6494 6.0927 -0.410108 0.195765 -0.0339138 -0.370003 -0.50625 0.217867 
223 15.5161 29.7252 6.12222 -0.174088 0.316331 -0.0894935 -0.926877 1.78337 2.02502 
389 9.14721 38.1961 6.11336 0.0413723 -0.238697 -0.0193354 -1.53642 -1.00025 0.42318 