ITEM: TIMESTEP
2500
ITEM: NUMBER OF ATOMS
4798
ITEM: BOX BOUNDS ff ff ff
-10.3577 110.358
-10.0998 131.9
-100.402 112.598
ITEM: ATOMS id x y z fx fy fz vx vy vz 
72 -0.062301 2.4752 6.09765 0 0 0 0 0 0 
110 4.19854 7.39519 6.09765 0 0 0 0 0 0 
109 2.77826 7.39519 6.09765 0 0 0 0 0 0 
93 4.19854 4.9352 6.09765 0 0 0 0 0 0 
92 2.77826 4.9352 6.09765 0 0 0 0 0 0 
91 2.06812 6.16519 6.09765 0 0 0 0 0 0 
87 0.647839 6.16519 6.09765 0 0 0 0 0 0 
86 -0.062301 7.39519 6.09765 0 0 0 0 0 0 
81 4.19854 2.4752 6.09765 0 0 0 0 0 0 
80 2.77826 2.4752 6.09765 0 0 0 0 0 0 
79 2.06812 3.7052 6.09765 0 0 0 0 0 0 
78 0.647839 3.7052 6.09765 0 0 0 0 0 0 
77 -0.062301 4.9352 6.09765 0 0 0 0 0 0 
76 4.19854 0.015197 6.09765 0 0 0 0 0 0 
75 2.77826 0.015197 6.09765 0 0 0 0 0 0 
74 2.06812 1.2452 6.09765 0 0 0 0 0 0 
73 0.647839 1.2452 6.09765 0 0 0 0 0 0 
6 -0.062301 12.3152 6.09765 0 0 0 0 0 0 
131 4.19854 12.3152 6.09765 0 0 0 0 0 0 
130 2.77826 12.3152 6.09765 0 0 0 0 0 0 
124 4.19854 9.85519 6.09765 0 0 0 0 0 0 
123 2.77826 9.85519 6.09765 0 0 0 0 0 0 
122 2.06812 11.0852 6.09765 0 0 0 0 0 0 
117 0.647839 11.0852 6.09765 0 0 0 0 0 0 
108 2.06812 8.62519 6.09765 0 0 0 0 0 0 
100 0.647839 8.62519 6.09765 0 0 0 0 0 0 
99 -0.062301 9.85519 6.09765 0 0 0 0 0 0 
34 4.19854 14.7752 6.09765 0 0 0 0 0 0 
33 2.77826 14.7752 6.09765 0 0 0 0 0 0 
32 2.06812 16.0052 6.09765 0 0 0 0 0 0 
31 0.647839 16.0052 6.09765 0 0 0 0 0 0 
19 2.06812 13.5452 6.09765 0 0 0 0 0 0 
18 0.647839 13.5452 6.09765 0 0 0 0 0 0 
17 -0.062301 14.7752 6.09765 0 0 0 0 0 0 
300 4.19854 24.6152 6.09765 0 0 0 0 0 0 
299 2.77826 24.6152 6.09765 0 0 0 0 0 0 
204 4.19854 22.1552 6.09765 0 0 0 0 0 0 
203 2.77826 22.1552 6.09765 0 0 0 0 0 0 
202 2.06812 23.3852 6.09765 0 0 0 0 0 0 
191 0.647839 23.3852 6.09765 0 0 0 0 0 0 
190 -0.062301 24.6152 6.09765 0 0 0 0 0 0 
71 2.06812 20.9252 6.09765 0 0 0 0 0 0 
70 0.647839 20.9252 6.09765 0 0 0 0 0 0 
69 -0.062301 22.1552 6.09765 0 0 0 0 0 0 
63 4.19854 19.6952 6.09765 0 0 0 0 0 0 
62 2.77826 19.6952 6.09765 0 0 0 0 0 0 
49 4.19854 17.2352 6.09765 0 0 0 0 0 0 
48 2.77826 17.2352 6.09765 0 0 0 0 0 0 
47 2.06812 18.4652 6.09765 0 0 0 0 0 0 
46 0.647839 18.4652 6.09765 0 0 0 0 0 0 
45 -0.062301 19.6952 6.09765 0 0 0 0 0 0 
30 -0.062301 17.2352 6.09765 0 0 0 0 0 0 
355 4.19854 31.9952 6.09765 0 0 0 0 0 0 
354 2.77826 31.9952 6.09765 0 0 0 0 0 0 
353 2.06812 33.2252 6.09765 0 0 0 0 0 0 
344 0.647839 33.2252 6.09765 0 0 0 0 0 0 
335 4.19854 29.5352 6.09765 0 0 0 0 0 0 
334 2.77826 29.5352 6.09765 0 0 0 0 0 0 
333 2.06812 30.7652 6.09765 0 0 0 0 0 0 
326 0.647839 30.7652 6.09765 0 0 0 0 0 0 
325 -0.062301 31.9952 6.09765 0 0 0 0 0 0 
315 4.19854 27.0752 6.09765 0 0 0 0 0 0 
314 2.77826 27.0752 6.09765 0 0 0 0 0 0 
313 2.06812 28.3052 6.09765 0 0 0 0 0 0 
308 0.647839 28.3052 6.09765 0 0 0 0 0 0 
307 -0.062301 29.5352 6.09765 0 0 0 0 0 0 
298 2.06812 25.8452 6.09765 0 0 0 0 0 0 
297 0.647839 25.8452 6.09765 0 0 0 0 0 0 
296 -0.062301 27.0752 6.09765 0 0 0 0 0 0 
215 -0.062301 36.9152 6.09765 0 0 0 0 0 0 
376 4.19854 36.9152 6.09765 0 0 0 0 0 0 
375 2.77826 36.9152 6.09765 0 0 0 0 0 0 
369 4.19854 34.4552 6.09765 0 0 0 0 0 0 
368 2.77826 34.4552 6.09765 0 0 0 0 0 0 
367 2.06812 35.6852 6.09765 0 0 0 0 0 0 
362 0.647839 35.6852 6.09765 0 0 0 0 0 0 
343 -0.062301 34.4552 6.09765 0 0 0 0 0 0 
258 4.19854 41.8352 6.09765 0 0 0 0 0 0 
257 2.77826 41.8352 6.09765 0 0 0 0 0 0 
256 2.06812 43.0652 6.09765 0 0 0 0 0 0 
255 0.647839 43.0652 6.09765 0 0 0 0 0 0 
243 4.19854 39.3752 6.09765 0 0 0 0 0 0 
242 2.77826 39.3752 6.09765 0 0 0 0 0 0 
241 2.06812 40.6052 6.09765 0 0 0 0 0 0 
240 0.647839 40.6052 6.09765 0 0 0 0 0 0 
239 -0.062301 41.8352 6.09765 0 0 0 0 0 0 
228 2.06812 38.1452 6.09765 0 0 0 0 0 0 
227 0.647839 38.1452 6.09765 0 0 0 0 0 0 
226 -0.062301 39.3752 6.09765 0 0 0 0 0 0 
254 -0.062301 44.2952 6.09765 0 0 0 0 0 0 
905 4.19854 51.6752 6.09765 0 0 0 0 0 0 
904 2.77826 51.6752 6.09765 0 0 0 0 0 0 
890 4.19854 49.2152 6.09765 0 0 0 0 0 0 
889 2.77826 49.2152 6.09765 0 0 0 0 0 0 
888 2.06812 50.4452 6.09765 0 0 0 0 0 0 
887 0.647839 50.4452 6.09765 0 0 0 0 0 0 
886 -0.062301 51.6752 6.09765 0 0 0 0 0 0 
794 4.19854 46.7552 6.09765 0 0 0 0 0 0 
793 2.77826 46.7552 6.09765 0 0 0 0 0 0 
792 2.06812 47.9852 6.09765 0 0 0 0 0 0 
781 0.647839 47.9852 6.09765 0 0 0 0 0 0 
780 -0.062301 49.2152 6.09765 0 0 0 0 0 0 
280 2.06812 45.5252 6.09765 0 0 0 0 0 0 
279 0.647839 45.5252 6.09765 0 0 0 0 0 0 
278 -0.062301 46.7552 6.09765 0 0 0 0 0 0 
272 4.19854 44.2952 6.09765 0 0 0 0 0 0 
271 2.77826 44.2952 6.09765 0 0 0 0 0 0 
959 4.19854 59.0552 6.09765 0 0 0 0 0 0 
958 2.77826 59.0552 6.09765 0 0 0 0 0 0 
957 2.06812 60.2852 6.09765 0 0 0 0 0 0 
952 0.647839 60.2852 6.09765 0 0 0 0 0 0 
945 4.19854 56.5952 6.09765 0 0 0 0 0 0 
944 2.77826 56.5952 6.09765 0 0 0 0 0 0 
943 2.06812 57.8252 6.09765 0 0 0 0 0 0 
934 0.647839 57.8252 6.09765 0 0 0 0 0 0 
933 -0.062301 59.0552 6.09765 0 0 0 0 0 0 
925 4.19854 54.1352 6.09765 0 0 0 0 0 0 
924 2.77826 54.1352 6.09765 0 0 0 0 0 0 
923 2.06812 55.3652 6.09765 0 0 0 0 0 0 
916 0.647839 55.3652 6.09765 0 0 0 0 0 0 
915 -0.062301 56.5952 6.09765 0 0 0 0 0 0 
903 2.06812 52.9052 6.09765 0 0 0 0 0 0 
898 0.647839 52.9052 6.09765 0 0 0 0 0 0 
897 -0.062301 54.1352 6.09765 0 0 0 0 0 0 
805 -0.062301 61.5152 6.09765 0 0 0 0 0 0 
966 4.19854 61.5152 6.09765 0 0 0 0 0 0 
965 2.77826 61.5152 6.09765 0 0 0 0 0 0 
862 4.19854 68.8952 6.09765 0 0 0 0 0 0 
861 2.77826 68.8952 6.09765 0 0 0 0 0 0 
848 4.19854 66.4352 6.09765 0 0 0 0 0 0 
847 2.77826 66.4352 6.09765 0 0 0 0 0 0 
846 2.06812 67.6652 6.09765 0 0 0 0 0 0 
845 0.647839 67.6652 6.09765 0 0 0 0 0 0 
844 -0.062301 68.8952 6.09765 0 0 0 0 0 0 
833 4.19854 63.9752 6.09765 0 0 0 0 0 0 
832 2.77826 63.9752 6.09765 0 0 0 0 0 0 
831 2.06812 65.2052 6.09765 0 0 0 0 0 0 
830 0.647839 65.2052 6.09765 0 0 0 0 0 0 
829 -0.062301 66.4352 6.09765 0 0 0 0 0 0 
818 2.06812 62.7452 6.09765 0 0 0 0 0 0 
817 0.647839 62.7452 6.09765 0 0 0 0 0 0 
816 -0.062301 63.9752 6.09765 0 0 0 0 0 0 
1828 4.19854 76.2752 6.09765 0 0 0 0 0 0 
1827 2.77826 76.2752 6.09765 0 0 0 0 0 0 
1826 2.06812 77.5052 6.09765 0 0 0 0 0 0 
1821 0.647839 77.5052 6.09765 0 0 0 0 0 0 
1813 4.19854 73.8152 6.09765 0 0 0 0 0 0 
1812 2.77826 73.8152 6.09765 0 0 0 0 0 0 
1811 2.06812 75.0452 6.09765 0 0 0 0 0 0 
1810 0.647839 75.0452 6.09765 0 0 0 0 0 0 
1809 -0.062301 76.2752 6.09765 0 0 0 0 0 0 
1717 4.19854 71.3552 6.09765 0 0 0 0 0 0 
1716 2.77826 71.3552 6.09765 0 0 0 0 0 0 
1715 2.06812 72.5852 6.09765 0 0 0 0 0 0 
1704 0.647839 72.5852 6.09765 0 0 0 0 0 0 
1703 -0.062301 73.8152 6.09765 0 0 0 0 0 0 
870 2.06812 70.1252 6.09765 0 0 0 0 0 0 
869 0.647839 70.1252 6.09765 0 0 0 0 0 0 
868 -0.062301 71.3552 6.09765 0 0 0 0 0 0 
1728 -0.062301 86.1152 6.09765 0 0 0 0 0 0 
1889 4.19854 86.1152 6.09765 0 0 0 0 0 0 
1888 2.77826 86.1152 6.09765 0 0 0 0 0 0 
1882 4.19854 83.6552 6.09765 0 0 0 0 0 0 
1881 2.77826 83.6552 6.09765 0 0 0 0 0 0 
1880 2.06812 84.8852 6.09765 0 0 0 0 0 0 
1875 0.647839 84.8852 6.09765 0 0 0 0 0 0 
1868 4.19854 81.1952 6.09765 0 0 0 0 0 0 
1867 2.77826 81.1952 6.09765 0 0 0 0 0 0 
1866 2.06812 82.4252 6.09765 0 0 0 0 0 0 
1857 0.647839 82.4252 6.09765 0 0 0 0 0 0 
1856 -0.062301 83.6552 6.09765 0 0 0 0 0 0 
1848 4.19854 78.7352 6.09765 0 0 0 0 0 0 
1847 2.77826 78.7352 6.09765 0 0 0 0 0 0 
1846 2.06812 79.9652 6.09765 0 0 0 0 0 0 
1839 0.647839 79.9652 6.09765 0 0 0 0 0 0 
1838 -0.062301 81.1952 6.09765 0 0 0 0 0 0 
1820 -0.062301 78.7352 6.09765 0 0 0 0 0 0 
1741 2.06812 87.3452 6.09765 0 0 0 0 0 0 
1740 0.647839 87.3452 6.09765 0 0 0 0 0 0 
2677 4.19854 95.9552 6.09765 0 0 0 0 0 0 
2676 2.77826 95.9552 6.09765 0 0 0 0 0 0 
1793 2.06812 94.7252 6.09765 0 0 0 0 0 0 
1792 0.647839 94.7252 6.09765 0 0 0 0 0 0 
1791 -0.062301 95.9552 6.09765 0 0 0 0 0 0 
1785 4.19854 93.4952 6.09765 0 0 0 0 0 0 
1784 2.77826 93.4952 6.09765 0 0 0 0 0 0 
1771 4.19854 91.0352 6.09765 0 0 0 0 0 0 
1770 2.77826 91.0352 6.09765 0 0 0 0 0 0 
1769 2.06812 92.2652 6.09765 0 0 0 0 0 0 
1768 0.647839 92.2652 6.09765 0 0 0 0 0 0 
1767 -0.062301 93.4952 6.09765 0 0 0 0 0 0 
1756 4.19854 88.5752 6.09765 0 0 0 0 0 0 
1755 2.77826 88.5752 6.09765 0 0 0 0 0 0 
1754 2.06812 89.8052 6.09765 0 0 0 0 0 0 
1753 0.647839 89.8052 6.09765 0 0 0 0 0 0 
1752 -0.062301 91.0352 6.09765 0 0 0 0 0 0 
1739 -0.062301 88.5752 6.09765 0 0 0 0 0 0 
2663 -0.062301 98.4152 6.09765 0 0 0 0 0 0 
2808 4.19854 103.335 6.09765 0 0 0 0 0 0 
2807 2.77826 103.335 6.09765 0 0 0 0 0 0 
2806 2.06812 104.565 6.09765 0 0 0 0 0 0 
2799 0.647839 104.565 6.09765 0 0 0 0 0 0 
2788 4.19854 100.875 6.09765 0 0 0 0 0 0 
2787 2.77826 100.875 6.09765 0 0 0 0 0 0 
2786 2.06812 102.105 6.09765 0 0 0 0 0 0 
2781 0.647839 102.105 6.09765 0 0 0 0 0 0 
2780 -0.062301 103.335 6.09765 0 0 0 0 0 0 
2773 4.19854 98.4152 6.09765 0 0 0 0 0 0 
2772 2.77826 98.4152 6.09765 0 0 0 0 0 0 
2771 2.06812 99.6452 6.09765 0 0 0 0 0 0 
2770 0.647839 99.6452 6.09765 0 0 0 0 0 0 
2769 -0.062301 100.875 6.09765 0 0 0 0 0 0 
2675 2.06812 97.1852 6.09765 0 0 0 0 0 0 
2664 0.647839 97.1852 6.09765 0 0 0 0 0 0 
2849 4.19854 110.715 6.09765 0 0 0 0 0 0 
2848 2.77826 110.715 6.09765 0 0 0 0 0 0 
2842 4.19854 108.255 6.09765 0 0 0 0 0 0 
2841 2.77826 108.255 6.09765 0 0 0 0 0 0 
2840 2.06812 109.485 6.09765 0 0 0 0 0 0 
2835 0.647839 109.485 6.09765 0 0 0 0 0 0 
2828 4.19854 105.795 6.09765 0 0 0 0 0 0 
2827 2.77826 105.795 6.09765 0 0 0 0 0 0 
2826 2.06812 107.025 6.09765 0 0 0 0 0 0 
2817 0.647839 107.025 6.09765 0 0 0 0 0 0 
2816 -0.062301 108.255 6.09765 0 0 0 0 0 0 
2798 -0.062301 105.795 6.09765 0 0 0 0 0 0 
2716 4.19854 113.175 6.09765 0 0 0 0 0 0 
2715 2.77826 113.175 6.09765 0 0 0 0 0 0 
2701 2.06812 111.945 6.09765 0 0 0 0 0 0 
2700 0.647839 111.945 6.09765 0 0 0 0 0 0 
2699 -0.062301 113.175 6.09765 0 0 0 0 0 0 
2688 -0.062301 110.715 6.09765 0 0 0 0 0 0 
2712 -0.062301 115.635 6.09765 0 0 0 0 0 0 
3636 4.19854 120.555 6.09765 0 0 0 0 0 0 
3635 2.77826 120.555 6.09765 0 0 0 0 0 0 
3634 2.06812 121.785 6.09765 0 0 0 0 0 0 
3623 0.647839 121.785 6.09765 0 0 0 0 0 0 
2753 2.06812 119.325 6.09765 0 0 0 0 0 0 
2752 0.647839 119.325 6.09765 0 0 0 0 0 0 
2751 -0.062301 120.555 6.09765 0 0 0 0 0 0 
2745 4.19854 118.095 6.09765 0 0 0 0 0 0 
2744 2.77826 118.095 6.09765 0 0 0 0 0 0 
2731 4.19854 115.635 6.09765 0 0 0 0 0 0 
2730 2.77826 115.635 6.09765 0 0 0 0 0 0 
2729 2.06812 116.865 6.09765 0 0 0 0 0 0 
2728 0.647839 116.865 6.09765 0 0 0 0 0 0 
2727 -0.062301 118.095 6.09765 0 0 0 0 0 0 
2714 2.06812 114.405 6.09765 0 0 0 0 0 0 
2713 0.647839 114.405 6.09765 0 0 0 0 0 0 
95 6.34332 3.80831 6.09314 -0.224655 -0.230199 -0.00733761 -0.25493 0.154519 0.357365 
5 19.2752 1.94645 6.09398 0.13874 0.126498 -0.152237 0.832533 0.595629 -0.456692 
96 7.08087 2.60603 6.08663 0.0876452 -0.0695826 0.0574004 -0.581846 0.630559 0.927816 
104 17.1651 0.734026 5.69588 -0.0295211 0.00876056 -0.0693787 -1.01462 0.0664157 0.735963 
112 6.33508 6.24901 6.09906 0.036926 -0.0647931 -0.0145538 0.372734 -0.953033 0.73509 
4 17.1344 3.09122 6.07131 0.219978 0.0442469 0.115395 1.56409 0.249989 -0.221627 
121 17.8943 1.90762 5.95056 0.0333169 0.0713652 0.0655403 1.13352 -0.499082 0.561153 
90 11.5454 0.469919 5.97362 0.0916708 0.198416 0.0120022 -0.336468 -0.269543 -0.0373419 
107 15.8192 0.655594 5.95735 0.121608 -0.0681321 0.0625861 0.00472674 -0.931983 0.921919 
84 7.21209 0.227365 6.0984 0.0291267 0.088335 0.0524503 -1.48633 -0.447405 0.854174 
88 10.7213 1.61661 6.06808 -0.0650426 -0.219538 0.131881 0.12743 -0.0484097 -0.876133 
94 4.90868 3.7052 6.09765 0 0 0 0 0 0 
111 4.90868 6.16519 6.09765 0 0 0 0 0 0 
82 4.90868 1.2452 6.09765 0 0 0 0 0 0 
85 8.57766 0.339744 6.29359 -0.160917 0.0096541 -0.00704837 0.566235 -0.664192 0.353746 
83 6.34626 1.35532 6.10479 0.224886 0.0486907 -0.0560408 -0.00716808 -1.29194 -1.7888 
89 12.9002 0.540094 6.2192 -0.0915259 -0.00357604 0.0289001 -0.168655 -1.58588 0.295891 
118 11.3744 5.25917 6.15947 -0.0742259 -0.100669 -0.0300917 1.23696 -0.338993 -0.407263 
119 13.5504 4.15492 6.16762 -0.172384 -0.150365 0.0304339 -0.231932 0.272147 -1.76576 
98 9.31864 1.53363 6.15889 0.11149 -0.224451 -0.157403 0.958128 0.656718 -0.476997 
106 13.6361 1.73982 6.17589 -0.349532 0.0348259 -0.143778 0.931612 -0.22477 -0.482646 
102 12.8603 2.92268 6.16154 -0.141398 0.118907 0.0405962 1.04803 0.550631 -0.583316 
127 7.05553 7.48814 6.10551 -0.0458777 0.082142 -0.0238788 0.746549 0.0654277 -0.990036 
128 8.47643 7.56363 6.1133 -0.0267787 0.325475 -0.0115963 0.129198 0.512913 -0.561553 
9 14.9226 6.62743 6.16117 -0.236389 0.451182 0.00518794 -0.37161 0.165385 -1.01784 
10 17.0861 5.4973 6.16168 -0.0384404 0.186476 0.0435157 -0.459141 0.826346 0.784084 
97 8.53019 2.70616 6.11287 0.0139635 0.323744 0.042096 0.274001 -1.20088 0.0616625 
129 9.20948 6.36301 6.1146 0.223657 0.0110022 0.0858625 -0.935883 -0.593315 0.489202 
101 10.6628 4.03134 6.14581 0.100757 0.0751478 -0.0889765 -0.425708 -0.6667 -0.286261 
1 10.6338 6.45234 6.14881 -0.389399 0.0160371 -0.0525195 0.315362 0.164492 0.826874 
13 13.497 6.56683 6.14127 0.263069 -0.353516 0.0513294 -0.255702 0.420131 0.961758 
103 15.0227 1.80491 6.0977 -0.0108604 0.185958 0.0163728 0.0828804 0.118305 -0.475054 
11 19.2415 4.36168 6.13532 0.194065 0.0387503 -0.0604996 0.946756 1.14769 -0.0319431 
105 11.4246 2.84905 6.11694 0.130466 -0.0126242 0.0522683 0.838892 0.363286 0.187306 
14 15.6731 5.44539 6.17419 -0.318136 -0.347344 0.00305269 -0.317337 -0.435599 0.5073 
15 17.8333 4.31177 6.12766 -0.26269 -0.0292505 -0.0266633 0.176783 -1.44866 -0.0600359 
3 14.9637 4.22308 6.17349 0.247877 0.163753 0.036801 -0.168161 -0.486661 -0.586508 
113 7.07185 5.03875 6.10102 -0.134175 0.247147 -0.0739445 -0.389466 0.265538 -0.44814 
114 8.49747 5.13145 6.10304 -0.31102 0.159093 0.0954085 0.299931 -0.776353 -0.454459 
24 19.1935 6.77394 6.15841 0.155671 0.112886 0.0028015 -0.135713 -1.11524 1.02479 
115 9.23812 3.94044 6.12814 0.163712 -0.120278 -0.0271564 0.526837 0.0160443 -0.304502 
120 15.717 3.04002 6.16166 -0.062417 -0.405123 -0.178592 0.531058 -0.788305 -0.413262 
28 17.7831 6.72113 6.17902 -0.0655087 0.0633916 -0.106928 -0.103849 -0.619302 0.0930316 
2 12.7913 5.33548 6.15071 0.254172 0.248038 0.0128378 0.398458 -1.18392 -1.13367 
126 6.33318 8.70644 6.09021 -0.149616 -0.215409 0.126136 -0.112074 0.958187 -0.187285 
319 8.44204 24.7033 6.07863 -0.143522 -0.0391138 0.136549 -0.814433 1.03687 -0.423756 
20 10.5943 11.3151 6.08427 -0.234989 0.0998599 0.251235 0.201397 -0.92175 -0.440134 
200 17.7176 13.9736 6.08958 -0.457772 0.0738667 0.0737457 0.072006 -1.27862 -0.349928 
40 11.3036 12.5475 6.08652 0.220115 -0.151971 0.0686589 0.0682515 0.415875 0.0738967 
51 6.32046 16.0665 6.08573 0.146058 -0.309041 0.113448 0.456064 -0.0935739 1.96668 
54 14.8559 13.8977 6.09344 -0.0171712 -0.178814 0.0774496 0.392407 0.240378 0.186327 
55 16.9972 12.7569 6.08304 0.142622 -0.0508307 0.0747824 -0.145333 0.754716 -0.542841 
143 8.45156 14.8989 6.09543 -0.204753 0.380109 0.0555674 0.41579 0.367493 1.41304 
142 7.03152 14.8434 6.09527 0.241801 0.173045 -0.0308297 0.656386 0.30097 0.413569 
137 4.90868 13.5452 6.09765 0 0 0 0 0 0 
132 4.90868 11.0852 6.09765 0 0 0 0 0 0 
125 4.90868 8.62519 6.09765 0 0 0 0 0 0 
50 4.90868 16.0052 6.09765 0 0 0 0 0 0 
198 13.4324 16.2723 6.14262 -0.269636 0.0313874 0.00250053 0.444715 -0.924549 0.121229 
64 4.90868 18.4652 6.09765 0 0 0 0 0 0 
295 9.15257 21.0384 6.12378 0.4544 -0.263287 0.073637 -0.999806 -0.0030352 0.331049 
293 7.02532 22.1981 6.09637 0.338462 0.191064 0.150111 -0.219687 -0.551683 0.1358 
291 4.90868 23.3852 6.09765 0 0 0 0 0 0 
205 4.90868 20.9252 6.09765 0 0 0 0 0 0 
67 8.45068 17.3527 6.12015 -0.0358731 0.128782 -0.0305881 -0.230328 -0.986195 1.10229 
193 12.7084 17.4865 6.164 0.211123 -0.378352 -0.0178457 -0.864874 -0.884155 -0.375177 
197 11.2962 17.4224 6.1545 -0.0749668 0.303127 -0.0105378 -0.725715 -0.451197 0.412975 
207 7.03951 19.7516 6.12558 -0.0761361 -0.179445 -0.12103 -0.264651 1.63781 0.0313757 
65 6.32806 18.5195 6.10817 -0.0669942 -0.235153 -0.0112627 1.27262 0.862141 0.219278 
7 10.6038 8.88638 6.15496 0.0679575 -0.229458 -0.138007 -0.801646 -0.342938 1.78496 
283 14.8424 18.7591 6.16109 -0.296867 0.13144 -0.0301837 -1.60309 -1.05355 -0.455652 
284 16.9687 17.599 6.12852 -0.0702505 0.0421892 0.102262 -0.929422 -1.66689 0.771422 
292 6.32162 23.4234 6.11227 -0.0428938 0.000288319 -0.0806512 0.812004 0.602912 -0.267204 
294 8.44651 22.2502 6.1225 -0.574263 0.0662544 -0.101025 -1.24877 -0.318943 -1.61241 
301 14.834 21.1976 6.13057 -0.0200002 0.0454323 0.00744229 0.757029 0.429106 0.546571 
342 19.7992 22.5244 6.16372 -0.0812595 0.215166 -0.0612394 -1.43626 -0.497588 0.601946 
303 19.0947 18.8773 6.15283 0.0784105 -0.193177 0.0498618 -0.37077 0.488709 0.587396 
324 19.8075 20.0975 6.16976 -0.0538291 0.0469193 -0.109755 -0.341655 -0.292991 0.0461407 
282 12.7056 19.9203 6.15211 0.14678 0.0508212 -0.0602358 1.14288 -1.11264 -0.33498 
304 15.5518 19.9873 6.14641 0.0322197 -0.184095 0.00164406 -1.01163 -1.40533 0.164966 
305 17.6811 18.8161 6.15336 0.0971197 0.576615 -0.0159342 -0.602694 -0.305213 1.58539 
309 10.5678 23.5277 6.11331 -0.0670915 0.0593776 -0.0911227 -0.0554767 0.0816555 0.65925 
310 12.7055 22.3624 6.10509 -0.164844 -0.175228 0.143393 1.44071 0.479141 0.362987 
312 13.4197 21.1472 6.12028 0.0167222 -0.0341625 0.0620687 0.1774 0.565511 -0.781555 
318 7.02488 24.6586 6.10997 0.199883 0.306895 -0.0328957 -1.26654 1.41462 0.280053 
285 19.1099 16.4515 6.13309 0.0156792 -0.0858062 -0.037155 -1.99379 -1.77704 0.435397 
320 9.14644 23.4825 6.09977 0.502355 0.0690947 0.0242065 0.327781 0.0305502 0.210809 
321 16.9612 22.4617 6.12539 -0.226411 0.490614 0.0125966 -0.0196847 0.58201 0.0889074 
322 19.0845 21.3067 6.16088 0.0360679 -0.200638 -0.00721493 -0.638737 -1.36962 0.974193 
323 17.6695 21.2556 6.1524 0.481635 -0.0779395 -0.0659056 -0.0926766 0.321155 0.0435059 
329 14.8284 23.6311 6.13086 0.21837 -0.0034307 -0.0116796 0.783273 0.257662 0.0653422 
331 13.4207 23.5844 6.12661 -0.235276 -0.173118 -0.0827781 -0.0973039 0.0340667 0.466382 
332 15.5494 22.4234 6.13133 -0.150082 -0.233406 -0.0490289 -0.450971 0.779676 -0.490615 
341 19.0835 23.7387 6.13567 -0.00144761 -0.295631 -0.0242653 -0.348363 -1.10207 1.06273 
348 16.954 24.9011 6.11254 0.0469715 0.0154441 0.000284386 1.10579 0.202666 -0.717386 
351 15.5409 24.8522 6.12927 0.0852827 0.112877 -0.055573 0.89851 -0.0448724 -0.446603 
352 17.6703 23.6898 6.11536 0.0978405 -0.0997836 0.0871407 0.48659 -0.862791 0.610348 
361 19.8056 24.9514 6.11688 -0.452021 0.0790085 -0.0650153 0.445827 0.35668 -1.16002 
206 6.32179 20.9613 6.09909 0.0282427 0.452208 0.0634248 0.260413 -1.59182 0.128634 
328 12.6988 24.7888 6.11439 0.0186557 0.521695 -0.014625 -0.205471 -0.713012 0.452382 
330 11.2849 24.7554 6.10244 -0.0896926 -0.250149 0.116564 0.673052 -0.953696 0.482135 
288 15.554 17.5477 6.14847 0.26361 -0.0288252 -0.0751173 -0.102946 0.0418543 -0.302416 
287 13.4243 18.7081 6.16345 0.125875 0.156322 -0.0289221 -0.925506 -0.0882239 1.01476 
286 11.2938 19.8659 6.15911 -0.264835 0.590213 -0.0225681 0.190927 -0.488686 -0.804345 
281 10.5693 21.0897 6.15629 0.230814 -0.434015 -0.15025 0.788061 -0.928929 0.220529 
209 9.16303 18.5849 6.14679 0.325921 0.0495927 -0.0916981 0.0941635 -0.430593 0.328658 
208 8.45378 19.8034 6.12611 -0.208664 -0.0367843 0.0952036 -0.777472 -0.553899 -2.09536 
302 16.9674 20.0342 6.14817 -0.274817 -0.335626 0.0160878 0.475164 0.366855 0.828962 
66 7.03982 17.2942 6.10533 -0.206955 0.266853 -0.0026742 -0.294603 0.00939593 0.391806 
311 11.288 22.3138 6.11369 -0.0206346 0.0354525 0.0960884 0.856918 -0.671523 -0.474256 
192 10.5842 18.6451 6.15248 -0.41795 -0.607377 0.0243948 0.546509 -0.226827 -0.339453 
37 14.8686 11.4738 6.11831 0.0181691 -0.0999586 0.062743 1.59585 1.21625 -0.992626 
36 12.7229 12.6134 6.10263 -0.0503862 -0.0685042 -0.0558958 0.137157 0.127035 -0.369452 
35 10.5802 13.7535 6.11298 0.149644 0.144686 -0.0328475 -0.918376 -0.88114 0.0460297 
25 11.3138 10.1141 6.14189 0.413686 -0.138841 -0.0859642 0.208028 0.769926 -0.124389 
21 12.7318 10.1836 6.15731 -0.0581512 0.177273 -0.111986 0.316351 -0.649062 1.15413 
141 9.17889 11.2364 6.12104 0.014767 0.317785 -0.13758 0.757213 1.00621 -0.616535 
199 15.5668 15.1179 6.11874 0.138883 0.0577 -0.0489596 -0.77467 -0.73899 1.08639 
136 9.19057 8.80357 6.13202 -0.213565 -0.233372 -0.0280556 0.0928415 1.25122 -0.223934 
133 6.3257 11.157 6.11164 0.0699107 0.0208568 0.0287504 -0.609685 -0.655625 -0.0880628 
134 7.04985 9.94539 6.11359 -0.313093 -0.314517 -0.0985003 1.017 0.527548 0.153763 
135 8.46174 10.0078 6.11543 0.144642 0.126522 0.0723324 -1.30596 1.42168 -0.558596 
41 13.4515 11.4076 6.12279 -0.0596214 -0.0565015 0.0132082 0.0101719 -0.845957 -0.215616 
57 11.2993 14.9843 6.13391 -0.127478 -0.130672 -0.0112592 0.0210824 0.34458 0.0159719 
139 7.04456 12.391 6.12473 -0.229637 -0.058845 -0.101353 0.284584 0.12032 0.778196 
140 8.4583 12.4511 6.11645 -0.00445132 0.0531768 0.0572778 0.373165 -0.35814 -0.723106 
144 9.16661 13.6872 6.11058 0.111525 -0.0854668 -0.0325145 1.30187 0.288884 0.993273 
289 17.6946 16.3988 6.12895 0.0178644 -0.193574 -0.0377851 -0.72053 -0.45044 -0.154102 
27 15.6239 7.85708 6.18105 0.137547 -0.14219 -0.0747639 0.0778917 -0.268895 0.0500993 
23 17.0446 7.91705 6.17705 -0.302426 -0.0671571 -0.0084853 0.577316 0.667209 0.081558 
12 11.3377 7.68384 6.14291 0.141325 -0.00217481 0.0718897 -0.0631569 0.851569 0.775242 
8 12.7563 7.75654 6.14863 -0.156229 0.240114 -0.00541721 -0.531263 -1.05075 -0.265642 
22 14.8859 9.05332 6.17737 -0.304766 -0.104357 -0.0513062 0.648727 0.922683 0.371708 
26 13.4592 8.98485 6.1574 0.605559 -0.128906 0.0430105 -0.217708 -0.778861 0.348058 
38 17.0096 10.3343 6.15448 0.293631 0.161987 -0.0348323 -0.667891 -1.86221 -0.698688 
39 19.1629 9.18952 6.15785 -0.247062 -0.0985608 -0.0727781 0.651193 -0.513848 -0.194099 
196 19.1273 14.0265 6.10639 0.170549 0.186397 -0.0158378 0.255687 0.394957 -0.304882 
42 15.6005 10.2729 6.15781 -0.281917 0.0722832 -0.0843691 1.13589 0.173528 -1.1997 
43 17.7462 9.1398 6.16406 0.183517 -0.10648 -0.000158937 -0.58882 -0.217302 -0.0532529 
195 16.9825 15.1763 6.10832 0.16808 -0.0710897 -0.0174676 1.22338 -0.146752 -0.532174 
52 10.5781 16.1964 6.13295 -0.0053068 0.0380328 0.0163902 0.130202 0.545049 0.673692 
53 12.715 15.0445 6.1318 0.0860641 0.0187887 -0.0182588 -0.477947 -0.721204 1.15652 
194 14.8451 16.3235 6.12695 -0.0752727 0.100933 0.0747658 -0.470999 -1.29693 -0.766615 
138 6.3274 13.6075 6.10975 -0.221231 -0.100796 -0.0755594 -0.491417 0.113569 -0.926543 
56 19.1363 11.6072 6.13223 0.0692596 -0.0632889 0.0103041 -1.7542 0.406022 0.129394 
58 13.4415 13.8354 6.10504 -0.130235 0.122361 0.00337462 -0.474719 0.134466 0.856727 
59 15.5863 12.6923 6.10344 -0.263343 0.265137 -0.101009 -1.03286 -1.2813 0.160235 
60 17.7218 11.5565 6.11531 0.105686 -0.217034 0.101886 0.95969 -0.85653 -0.115292 
68 9.16055 16.1406 6.10371 0.256145 -0.399563 0.0555818 1.17039 0.15237 -0.266889 
210 10.5688 30.8824 6.07784 -0.0941893 -0.32609 0.125993 -0.783702 -0.104799 -1.36037 
381 9.15369 33.2976 6.0981 -0.0253435 0.048371 -0.0576102 0.323794 -1.26929 0.103635 
216 10.5689 33.3329 6.09273 -0.041521 -0.331872 -0.0302748 0.146498 1.17351 0.306787 
217 12.6973 32.1391 6.08178 -0.0642237 0.10688 -0.0578084 -0.220697 -0.349168 -0.569812 
374 9.15121 30.8394 6.08833 0.0344269 0.177659 -0.054224 -0.996324 0.731402 -0.78538 
221 11.2816 32.1102 6.1028 -0.133015 0.0569824 -0.111781 -0.947979 -0.346771 0.963559 
251 15.5271 34.6213 6.06414 0.139528 0.0360802 -0.119304 1.17922 0.0828733 -0.815059 
218 14.8145 30.9507 6.08788 -0.0598782 -0.229495 0.0585315 1.05818 -1.46956 -0.626252 
260 6.32433 40.6265 6.0839 -0.186776 0.132186 0.102973 -0.683555 0.410054 -0.956522 
261 10.5568 40.6729 6.08871 -0.0121159 -0.141447 0.0518853 -0.691301 -0.229841 -0.539977 
222 13.399 30.9145 6.0764 0.220772 0.213998 0.05265 -1.18687 -0.907861 -0.367972 
276 8.43848 41.8835 6.07423 -0.120526 -0.325616 0.00831505 0.236923 0.063321 -0.87958 
386 9.14722 35.7489 6.09208 0.0451747 0.459128 0.0735263 -0.316215 0.310406 1.34551 
234 11.2715 34.5582 6.07989 0.330826 0.25138 0.0525814 -0.242646 0.639648 -0.00269554 
230 12.6926 34.5881 6.0686 -0.145645 -0.175898 0.0192732 -1.58583 0.464096 -0.586767 
214 19.0851 26.1589 6.07973 -0.0936157 0.0795732 0.120911 0.0328979 0.867518 1.15321 
366 17.6734 26.1225 6.08986 -0.173979 -0.248267 0.0247064 0.72297 -0.508682 -0.245573 
229 10.5608 35.7827 6.08924 0.136658 -0.232519 -0.0128208 -2.03967 -0.97762 0.480002 
364 13.4102 28.4712 6.10539 -0.25192 -0.150849 0.0809434 -0.448559 -1.14124 1.69466 
232 16.9362 32.2035 6.07947 -0.0648751 0.205352 -0.035 -0.267223 0.63556 1.16318 
384 7.02976 36.9462 6.09528 -0.36174 0.144134 0.0519552 0.787476 0.11562 -0.0637993 
383 6.32258 38.1761 6.09497 -0.0187611 -0.252735 -0.00412805 0.436117 0.393936 -0.0326967 
378 6.31835 35.7157 6.08815 0.273925 0.0285975 0.0450719 -0.830904 -0.811189 0.028583 
235 13.4101 33.3681 6.06557 -0.612206 -0.022264 0.0412804 0.295272 -0.81715 -0.169934 
253 19.7763 32.2545 6.09018 0.399626 -0.125179 0.0176298 -0.461305 1.09436 0.604477 
225 19.7852 27.3831 6.09535 -0.138027 0.331269 -0.0029917 0.51977 0.525809 2.29202 
231 14.8139 33.4003 6.06983 0.407231 -0.213512 0.00971659 -0.0980538 -2.40154 -0.122815 
236 15.5216 32.1754 6.07682 0.0849077 0.203537 0.0280996 1.01279 0.129481 -0.528739 
371 6.31968 33.2551 6.07672 0.241769 0.165767 0.100566 1.38163 0.537492 1.32064 
789 15.5126 39.513 6.05689 -0.199633 -0.307805 -0.00910879 0.265956 1.41245 -0.179285 
785 16.9203 39.5273 6.03976 0.402076 0.181881 0.127413 0.253783 -0.155562 0.750548 
782 10.5604 43.1217 6.06315 -0.216425 0.225096 0.0287424 0.216883 -0.509729 -0.758427 
263 14.8071 38.2819 6.06939 0.0901293 0.293053 -0.021786 0.700297 -0.523591 1.10517 
799 9.14252 43.1086 6.05865 0.108991 0.146703 0.0605203 0.245532 1.36456 -0.918926 
250 13.4054 35.8092 6.06834 -0.163165 0.270603 0.0292228 -0.0906904 0.396581 0.336163 
245 12.6865 37.0294 6.08556 0.24861 -0.0448525 0.042302 -0.948413 -0.396662 0.307586 
380 8.44525 34.5223 6.08994 -0.114704 -0.251674 0.0429541 -0.215658 1.26241 0.185137 
274 6.32219 43.0847 6.07771 -0.101837 0.0450677 0.0803431 -0.513223 -0.427922 -0.207187 
379 7.03113 34.492 6.08539 -0.219273 -0.134481 -0.00396636 0.603449 0.0197929 0.653332 
264 16.9345 37.0936 6.06877 -0.0401738 -0.150577 -0.107924 0.190437 -0.529461 0.349684 
268 15.5218 37.0683 6.07146 0.0474187 -0.0724391 -0.00327202 1.05087 0.374156 0.8592 
246 14.8188 35.842 6.07093 -0.139481 -0.0635581 0.00483335 0.0452943 0.515821 -0.81489 
791 19.776 37.1193 6.05698 -0.271082 0.122826 0.0485353 0.698926 -0.705558 1.27655 
252 17.6462 33.4281 6.04146 0.312979 -0.017706 0.0622644 -0.39101 0.447593 0.10304 
248 19.0649 33.4621 6.05779 -0.394223 0.106705 0.0781403 0.300962 0.204849 1.01165 
372 7.02804 32.0311 6.08829 0.110068 -0.0586594 -0.0955493 -0.677125 0.530946 0.843027 
357 6.31937 30.7947 6.07862 0.346065 0.106823 0.0629936 -0.929314 0.0622971 -0.653602 
786 19.0591 38.3366 6.04264 0.0311747 0.0789036 0.0617986 0.379458 0.780398 0.0674227 
880 19.7755 39.5595 6.0565 -0.103075 -0.19085 -0.0989011 -0.433428 0.359552 0.133038 
896 19.7596 41.9957 6.02692 0.356333 -0.164973 0.199446 1.77765 0.23172 -1.463 
270 19.7735 34.6814 6.0856 0.0777205 0.28395 -0.153198 0.712543 -0.220913 -0.546143 
247 16.9419 34.645 6.03028 -0.202579 0.256024 0.110522 0.565077 -0.223774 -0.00590914 
879 17.6386 40.7484 6.07938 -0.0760185 0.178679 -0.00816988 -1.0764 -0.47352 1.05239 
373 8.44677 32.0677 6.08469 -0.222294 -0.248899 0.0658694 0.245018 -0.0671181 -1.27411 
358 7.03154 29.5718 6.0852 -0.150766 -0.0142749 0.0275227 -0.0064323 -0.281296 0.330866 
875 19.0543 40.7688 6.06404 -0.0520357 0.2498 -0.0801372 -0.265915 0.409579 1.09824 
275 7.02261 41.8578 6.0806 0.168151 0.155236 0.00396466 -0.454043 0.52786 -0.269397 
790 17.6409 38.3149 6.06012 0.181029 0.0437237 -0.0858066 0.00575084 -0.767769 -0.327695 
788 13.3912 40.7137 6.08527 -0.0183228 -0.779543 0.0344938 -0.128292 0.905045 0.424597 
787 11.2621 41.8992 6.08013 0.246563 -0.0639184 -0.0362116 0.864674 -0.0384609 0.142985 
269 17.6485 35.8758 6.04219 -0.153045 -0.0872879 0.0886899 -0.139106 -0.781818 0.359822 
784 14.8066 40.7315 6.07385 -0.0929673 -0.0197998 0.0904422 -0.163989 -0.155258 0.348426 
783 12.6775 41.9206 6.09171 -0.143168 0.366485 0.0446433 -0.776463 0.838446 -0.732291 
265 19.061 35.9029 6.05286 0.0455997 -0.277852 0.0732427 1.42834 1.29654 0.111909 
267 13.3957 38.2574 6.09285 -0.0826492 -0.0286568 0.000446348 -0.467832 0.408086 0.826135 
259 4.90868 40.6052 6.09765 0 0 0 0 0 0 
370 4.90868 33.2252 6.09765 0 0 0 0 0 0 
213 16.9531 27.3291 6.11088 -0.205112 0.141376 -0.0900577 -0.605939 0.701709 -0.688422 
356 4.90868 30.7652 6.09765 0 0 0 0 0 0 
336 4.90868 28.3052 6.09765 0 0 0 0 0 0 
316 4.90868 25.8452 6.09765 0 0 0 0 0 0 
273 4.90868 43.0652 6.09765 0 0 0 0 0 0 
377 4.90868 35.6852 6.09765 0 0 0 0 0 0 
382 4.90868 38.1452 6.09765 0 0 0 0 0 0 
337 6.32411 28.3362 6.1025 -0.0198432 0.24042 0.0078344 -0.151436 -0.762848 0.0186784 
878 15.5181 41.9523 6.12346 0.0387794 -0.234309 -0.0885677 0.0128708 -0.545974 1.70459 
877 13.3929 43.1428 6.12224 -0.125093 0.0686489 -0.111866 -0.856381 0.941241 1.03685 
874 16.9316 41.977 6.11569 0.137432 -0.364713 -0.0812287 -0.1158 0.150909 -0.560843 
365 15.5347 27.294 6.09957 0.216966 -0.503681 0.148941 0.23045 0.528419 0.755144 
262 12.684 39.4764 6.10823 -0.108687 0.197613 -0.137188 0.896664 0.0846066 0.897584 
359 8.44483 29.6036 6.08624 -0.0397057 0.342861 0.0226242 -0.0324111 -0.170346 -1.8304 
219 16.9364 29.7643 6.10974 0.373463 0.604942 0.0462683 0.834996 0.103742 0.121247 
244 10.5616 38.2175 6.1141 -0.11122 0.208503 0.0594122 -0.524988 1.49273 1.12674 
363 11.2746 29.6543 6.10974 0.159737 0.144411 -0.0391081 -0.571391 0.561066 -0.910448 
223 15.5319 29.732 6.12129 -0.375056 0.161531 -0.126845 -0.570531 2.43299 -0.527302 