ITEM: TIMESTEP
3600
ITEM: NUMBER OF ATOMS
4798
ITEM: BOX BOUNDS ff ff ff
-10.3577 110.358
-10.0998 131.9
-100.402 112.598
ITEM: ATOMS id x y z fx fy fz vx vy vz 
72 -0.062301 2.4752 6.09765 0 0 0 0 0 0 
110 4.19854 7.39519 6.09765 0 0 0 0 0 0 
109 2.77826 7.39519 6.09765 0 0 0 0 0 0 
93 4.19854 4.9352 6.09765 0 0 0 0 0 0 
92 2.77826 4.9352 6.09765 0 0 0 0 0 0 
91 2.06812 6.16519 6.09765 0 0 0 0 0 0 
87 0.647839 6.16519 6.09765 0 0 0 0 0 0 
86 -0.062301 7.39519 6.09765 0 0 0 0 0 0 
81 4.19854 2.4752 6.09765 0 0 0 0 0 0 
80 2.77826 2.4752 6.09765 0 0 0 0 0 0 
79 2.06812 3.7052 6.09765 0 0 0 0 0 0 
78 0.647839 3.7052 6.09765 0 0 0 0 0 0 
77 -0.062301 4.9352 6.09765 0 0 0 0 0 0 
76 4.19854 0.015197 6.09765 0 0 0 0 0 0 
75 2.77826 0.015197 6.09765 0 0 0 0 0 0 
74 2.06812 1.2452 6.09765 0 0 0 0 0 0 
73 0.647839 1.2452 6.09765 0 0 0 0 0 0 
6 -0.062301 12.3152 6.09765 0 0 0 0 0 0 
131 4.19854 12.3152 6.09765 0 0 0 0 0 0 
130 2.77826 12.3152 6.09765 0 0 0 0 0 0 
124 4.19854 9.85519 6.09765 0 0 0 0 0 0 
123 2.77826 9.85519 6.09765 0 0 0 0 0 0 
122 2.06812 11.0852 6.09765 0 0 0 0 0 0 
117 0.647839 11.0852 6.09765 0 0 0 0 0 0 
108 2.06812 8.62519 6.09765 0 0 0 0 0 0 
100 0.647839 8.62519 6.09765 0 0 0 0 0 0 
99 -0.062301 9.85519 6.09765 0 0 0 0 0 0 
34 4.19854 14.7752 6.09765 0 0 0 0 0 0 
33 2.77826 14.7752 6.09765 0 0 0 0 0 0 
32 2.06812 16.0052 6.09765 0 0 0 0 0 0 
31 0.647839 16.0052 6.09765 0 0 0 0 0 0 
19 2.06812 13.5452 6.09765 0 0 0 0 0 0 
18 0.647839 13.5452 6.09765 0 0 0 0 0 0 
17 -0.062301 14.7752 6.09765 0 0 0 0 0 0 
300 4.19854 24.6152 6.09765 0 0 0 0 0 0 
299 2.77826 24.6152 6.09765 0 0 0 0 0 0 
204 4.19854 22.1552 6.09765 0 0 0 0 0 0 
203 2.77826 22.1552 6.09765 0 0 0 0 0 0 
202 2.06812 23.3852 6.09765 0 0 0 0 0 0 
191 0.647839 23.3852 6.09765 0 0 0 0 0 0 
190 -0.062301 24.6152 6.09765 0 0 0 0 0 0 
71 2.06812 20.9252 6.09765 0 0 0 0 0 0 
70 0.647839 20.9252 6.09765 0 0 0 0 0 0 
69 -0.062301 22.1552 6.09765 0 0 0 0 0 0 
63 4.19854 19.6952 6.09765 0 0 0 0 0 0 
62 2.77826 19.6952 6.09765 0 0 0 0 0 0 
49 4.19854 17.2352 6.09765 0 0 0 0 0 0 
48 2.77826 17.2352 6.09765 0 0 0 0 0 0 
47 2.06812 18.4652 6.09765 0 0 0 0 0 0 
46 0.647839 18.4652 6.09765 0 0 0 0 0 0 
45 -0.062301 19.6952 6.09765 0 0 0 0 0 0 
30 -0.062301 17.2352 6.09765 0 0 0 0 0 0 
355 4.19854 31.9952 6.09765 0 0 0 0 0 0 
354 2.77826 31.9952 6.09765 0 0 0 0 0 0 
353 2.06812 33.2252 6.09765 0 0 0 0 0 0 
344 0.647839 33.2252 6.09765 0 0 0 0 0 0 
335 4.19854 29.5352 6.09765 0 0 0 0 0 0 
334 2.77826 29.5352 6.09765 0 0 0 0 0 0 
333 2.06812 30.7652 6.09765 0 0 0 0 0 0 
326 0.647839 30.7652 6.09765 0 0 0 0 0 0 
325 -0.062301 31.9952 6.09765 0 0 0 0 0 0 
315 4.19854 27.0752 6.09765 0 0 0 0 0 0 
314 2.77826 27.0752 6.09765 0 0 0 0 0 0 
313 2.06812 28.3052 6.09765 0 0 0 0 0 0 
308 0.647839 28.3052 6.09765 0 0 0 0 0 0 
307 -0.062301 29.5352 6.09765 0 0 0 0 0 0 
298 2.06812 25.8452 6.09765 0 0 0 0 0 0 
297 0.647839 25.8452 6.09765 0 0 0 0 0 0 
296 -0.062301 27.0752 6.09765 0 0 0 0 0 0 
215 -0.062301 36.9152 6.09765 0 0 0 0 0 0 
376 4.19854 36.9152 6.09765 0 0 0 0 0 0 
375 2.77826 36.9152 6.09765 0 0 0 0 0 0 
369 4.19854 34.4552 6.09765 0 0 0 0 0 0 
368 2.77826 34.4552 6.09765 0 0 0 0 0 0 
367 2.06812 35.6852 6.09765 0 0 0 0 0 0 
362 0.647839 35.6852 6.09765 0 0 0 0 0 0 
343 -0.062301 34.4552 6.09765 0 0 0 0 0 0 
258 4.19854 41.8352 6.09765 0 0 0 0 0 0 
257 2.77826 41.8352 6.09765 0 0 0 0 0 0 
256 2.06812 43.0652 6.09765 0 0 0 0 0 0 
255 0.647839 43.0652 6.09765 0 0 0 0 0 0 
243 4.19854 39.3752 6.09765 0 0 0 0 0 0 
242 2.77826 39.3752 6.09765 0 0 0 0 0 0 
241 2.06812 40.6052 6.09765 0 0 0 0 0 0 
240 0.647839 40.6052 6.09765 0 0 0 0 0 0 
239 -0.062301 41.8352 6.09765 0 0 0 0 0 0 
228 2.06812 38.1452 6.09765 0 0 0 0 0 0 
227 0.647839 38.1452 6.09765 0 0 0 0 0 0 
226 -0.062301 39.3752 6.09765 0 0 0 0 0 0 
254 -0.062301 44.2952 6.09765 0 0 0 0 0 0 
905 4.19854 51.6752 6.09765 0 0 0 0 0 0 
904 2.77826 51.6752 6.09765 0 0 0 0 0 0 
890 4.19854 49.2152 6.09765 0 0 0 0 0 0 
889 2.77826 49.2152 6.09765 0 0 0 0 0 0 
888 2.06812 50.4452 6.09765 0 0 0 0 0 0 
887 0.647839 50.4452 6.09765 0 0 0 0 0 0 
886 -0.062301 51.6752 6.09765 0 0 0 0 0 0 
794 4.19854 46.7552 6.09765 0 0 0 0 0 0 
793 2.77826 46.7552 6.09765 0 0 0 0 0 0 
792 2.06812 47.9852 6.09765 0 0 0 0 0 0 
781 0.647839 47.9852 6.09765 0 0 0 0 0 0 
780 -0.062301 49.2152 6.09765 0 0 0 0 0 0 
280 2.06812 45.5252 6.09765 0 0 0 0 0 0 
279 0.647839 45.5252 6.09765 0 0 0 0 0 0 
278 -0.062301 46.7552 6.09765 0 0 0 0 0 0 
272 4.19854 44.2952 6.09765 0 0 0 0 0 0 
271 2.77826 44.2952 6.09765 0 0 0 0 0 0 
959 4.19854 59.0552 6.09765 0 0 0 0 0 0 
958 2.77826 59.0552 6.09765 0 0 0 0 0 0 
957 2.06812 60.2852 6.09765 0 0 0 0 0 0 
952 0.647839 60.2852 6.09765 0 0 0 0 0 0 
945 4.19854 56.5952 6.09765 0 0 0 0 0 0 
944 2.77826 56.5952 6.09765 0 0 0 0 0 0 
943 2.06812 57.8252 6.09765 0 0 0 0 0 0 
934 0.647839 57.8252 6.09765 0 0 0 0 0 0 
933 -0.062301 59.0552 6.09765 0 0 0 0 0 0 
925 4.19854 54.1352 6.09765 0 0 0 0 0 0 
924 2.77826 54.1352 6.09765 0 0 0 0 0 0 
923 2.06812 55.3652 6.09765 0 0 0 0 0 0 
916 0.647839 55.3652 6.09765 0 0 0 0 0 0 
915 -0.062301 56.5952 6.09765 0 0 0 0 0 0 
903 2.06812 52.9052 6.09765 0 0 0 0 0 0 
898 0.647839 52.9052 6.09765 0 0 0 0 0 0 
897 -0.062301 54.1352 6.09765 0 0 0 0 0 0 
805 -0.062301 61.5152 6.09765 0 0 0 0 0 0 
966 4.19854 61.5152 6.09765 0 0 0 0 0 0 
965 2.77826 61.5152 6.09765 0 0 0 0 0 0 
862 4.19854 68.8952 6.09765 0 0 0 0 0 0 
861 2.77826 68.8952 6.09765 0 0 0 0 0 0 
848 4.19854 66.4352 6.09765 0 0 0 0 0 0 
847 2.77826 66.4352 6.09765 0 0 0 0 0 0 
846 2.06812 67.6652 6.09765 0 0 0 0 0 0 
845 0.647839 67.6652 6.09765 0 0 0 0 0 0 
844 -0.062301 68.8952 6.09765 0 0 0 0 0 0 
833 4.19854 63.9752 6.09765 0 0 0 0 0 0 
832 2.77826 63.9752 6.09765 0 0 0 0 0 0 
831 2.06812 65.2052 6.09765 0 0 0 0 0 0 
830 0.647839 65.2052 6.09765 0 0 0 0 0 0 
829 -0.062301 66.4352 6.09765 0 0 0 0 0 0 
818 2.06812 62.7452 6.09765 0 0 0 0 0 0 
817 0.647839 62.7452 6.09765 0 0 0 0 0 0 
816 -0.062301 63.9752 6.09765 0 0 0 0 0 0 
1828 4.19854 76.2752 6.09765 0 0 0 0 0 0 
1827 2.77826 76.2752 6.09765 0 0 0 0 0 0 
1826 2.06812 77.5052 6.09765 0 0 0 0 0 0 
1821 0.647839 77.5052 6.09765 0 0 0 0 0 0 
1813 4.19854 73.8152 6.09765 0 0 0 0 0 0 
1812 2.77826 73.8152 6.09765 0 0 0 0 0 0 
1811 2.06812 75.0452 6.09765 0 0 0 0 0 0 
1810 0.647839 75.0452 6.09765 0 0 0 0 0 0 
1809 -0.062301 76.2752 6.09765 0 0 0 0 0 0 
1717 4.19854 71.3552 6.09765 0 0 0 0 0 0 
1716 2.77826 71.3552 6.09765 0 0 0 0 0 0 
1715 2.06812 72.5852 6.09765 0 0 0 0 0 0 
1704 0.647839 72.5852 6.09765 0 0 0 0 0 0 
1703 -0.062301 73.8152 6.09765 0 0 0 0 0 0 
870 2.06812 70.1252 6.09765 0 0 0 0 0 0 
869 0.647839 70.1252 6.09765 0 0 0 0 0 0 
868 -0.062301 71.3552 6.09765 0 0 0 0 0 0 
1728 -0.062301 86.1152 6.09765 0 0 0 0 0 0 
1889 4.19854 86.1152 6.09765 0 0 0 0 0 0 
1888 2.77826 86.1152 6.09765 0 0 0 0 0 0 
1882 4.19854 83.6552 6.09765 0 0 0 0 0 0 
1881 2.77826 83.6552 6.09765 0 0 0 0 0 0 
1880 2.06812 84.8852 6.09765 0 0 0 0 0 0 
1875 0.647839 84.8852 6.09765 0 0 0 0 0 0 
1868 4.19854 81.1952 6.09765 0 0 0 0 0 0 
1867 2.77826 81.1952 6.09765 0 0 0 0 0 0 
1866 2.06812 82.4252 6.09765 0 0 0 0 0 0 
1857 0.647839 82.4252 6.09765 0 0 0 0 0 0 
1856 -0.062301 83.6552 6.09765 0 0 0 0 0 0 
1848 4.19854 78.7352 6.09765 0 0 0 0 0 0 
1847 2.77826 78.7352 6.09765 0 0 0 0 0 0 
1846 2.06812 79.9652 6.09765 0 0 0 0 0 0 
1839 0.647839 79.9652 6.09765 0 0 0 0 0 0 
1838 -0.062301 81.1952 6.09765 0 0 0 0 0 0 
1820 -0.062301 78.7352 6.09765 0 0 0 0 0 0 
1741 2.06812 87.3452 6.09765 0 0 0 0 0 0 
1740 0.647839 87.3452 6.09765 0 0 0 0 0 0 
2677 4.19854 95.9552 6.09765 0 0 0 0 0 0 
2676 2.77826 95.9552 6.09765 0 0 0 0 0 0 
1793 2.06812 94.7252 6.09765 0 0 0 0 0 0 
1792 0.647839 94.7252 6.09765 0 0 0 0 0 0 
1791 -0.062301 95.9552 6.09765 0 0 0 0 0 0 
1785 4.19854 93.4952 6.09765 0 0 0 0 0 0 
1784 2.77826 93.4952 6.09765 0 0 0 0 0 0 
1771 4.19854 91.0352 6.09765 0 0 0 0 0 0 
1770 2.77826 91.0352 6.09765 0 0 0 0 0 0 
1769 2.06812 92.2652 6.09765 0 0 0 0 0 0 
1768 0.647839 92.2652 6.09765 0 0 0 0 0 0 
1767 -0.062301 93.4952 6.09765 0 0 0 0 0 0 
1756 4.19854 88.5752 6.09765 0 0 0 0 0 0 
1755 2.77826 88.5752 6.09765 0 0 0 0 0 0 
1754 2.06812 89.8052 6.09765 0 0 0 0 0 0 
1753 0.647839 89.8052 6.09765 0 0 0 0 0 0 
1752 -0.062301 91.0352 6.09765 0 0 0 0 0 0 
1739 -0.062301 88.5752 6.09765 0 0 0 0 0 0 
2663 -0.062301 98.4152 6.09765 0 0 0 0 0 0 
2808 4.19854 103.335 6.09765 0 0 0 0 0 0 
2807 2.77826 103.335 6.09765 0 0 0 0 0 0 
2806 2.06812 104.565 6.09765 0 0 0 0 0 0 
2799 0.647839 104.565 6.09765 0 0 0 0 0 0 
2788 4.19854 100.875 6.09765 0 0 0 0 0 0 
2787 2.77826 100.875 6.09765 0 0 0 0 0 0 
2786 2.06812 102.105 6.09765 0 0 0 0 0 0 
2781 0.647839 102.105 6.09765 0 0 0 0 0 0 
2780 -0.062301 103.335 6.09765 0 0 0 0 0 0 
2773 4.19854 98.4152 6.09765 0 0 0 0 0 0 
2772 2.77826 98.4152 6.09765 0 0 0 0 0 0 
2771 2.06812 99.6452 6.09765 0 0 0 0 0 0 
2770 0.647839 99.6452 6.09765 0 0 0 0 0 0 
2769 -0.062301 100.875 6.09765 0 0 0 0 0 0 
2675 2.06812 97.1852 6.09765 0 0 0 0 0 0 
2664 0.647839 97.1852 6.09765 0 0 0 0 0 0 
2849 4.19854 110.715 6.09765 0 0 0 0 0 0 
2848 2.77826 110.715 6.09765 0 0 0 0 0 0 
2842 4.19854 108.255 6.09765 0 0 0 0 0 0 
2841 2.77826 108.255 6.09765 0 0 0 0 0 0 
2840 2.06812 109.485 6.09765 0 0 0 0 0 0 
2835 0.647839 109.485 6.09765 0 0 0 0 0 0 
2828 4.19854 105.795 6.09765 0 0 0 0 0 0 
2827 2.77826 105.795 6.09765 0 0 0 0 0 0 
2826 2.06812 107.025 6.09765 0 0 0 0 0 0 
2817 0.647839 107.025 6.09765 0 0 0 0 0 0 
2816 -0.062301 108.255 6.09765 0 0 0 0 0 0 
2798 -0.062301 105.795 6.09765 0 0 0 0 0 0 
2716 4.19854 113.175 6.09765 0 0 0 0 0 0 
2715 2.77826 113.175 6.09765 0 0 0 0 0 0 
2701 2.06812 111.945 6.09765 0 0 0 0 0 0 
2700 0.647839 111.945 6.09765 0 0 0 0 0 0 
2699 -0.062301 113.175 6.09765 0 0 0 0 0 0 
2688 -0.062301 110.715 6.09765 0 0 0 0 0 0 
2712 -0.062301 115.635 6.09765 0 0 0 0 0 0 
3636 4.19854 120.555 6.09765 0 0 0 0 0 0 
3635 2.77826 120.555 6.09765 0 0 0 0 0 0 
3634 2.06812 121.785 6.09765 0 0 0 0 0 0 
3623 0.647839 121.785 6.09765 0 0 0 0 0 0 
2753 2.06812 119.325 6.09765 0 0 0 0 0 0 
2752 0.647839 119.325 6.09765 0 0 0 0 0 0 
2751 -0.062301 120.555 6.09765 0 0 0 0 0 0 
2745 4.19854 118.095 6.09765 0 0 0 0 0 0 
2744 2.77826 118.095 6.09765 0 0 0 0 0 0 
2731 4.19854 115.635 6.09765 0 0 0 0 0 0 
2730 2.77826 115.635 6.09765 0 0 0 0 0 0 
2729 2.06812 116.865 6.09765 0 0 0 0 0 0 
2728 0.647839 116.865 6.09765 0 0 0 0 0 0 
2727 -0.062301 118.095 6.09765 0 0 0 0 0 0 
2714 2.06812 114.405 6.09765 0 0 0 0 0 0 
2713 0.647839 114.405 6.09765 0 0 0 0 0 0 
95 6.33264 3.80372 6.10118 0.225452 0.305922 -0.00236178 0.498308 -0.53654 -0.606731 
107 15.8059 0.676825 5.82148 -0.136354 0.072067 -0.0181489 0.709335 0.16209 1.46623 
96 7.07708 2.61008 6.10189 -0.0906291 -0.197131 0.0120566 0.524838 0.780829 -0.399217 
104 17.1724 0.697519 5.9557 0.00478732 0.0543053 0.0439357 0.247409 -0.297003 0.0984183 
90 11.522 0.461601 6.18066 0.0110157 -0.0344708 -0.00652257 -0.44111 -0.256369 -0.950697 
121 17.883 1.89387 6.17383 -0.0906952 -0.31419 -0.177176 -0.0289343 2.63535 0.167936 
103 15.0035 1.80754 6.07835 -0.0782136 -0.235942 0.0337865 -0.235426 0.338058 -0.24148 
94 4.90868 3.7052 6.09765 0 0 0 0 0 0 
111 4.90868 6.16519 6.09765 0 0 0 0 0 0 
82 4.90868 1.2452 6.09765 0 0 0 0 0 0 
85 8.56311 0.329535 6.11197 0.098554 0.00752734 0.0438516 -0.0250214 0.298152 -0.415738 
83 6.33984 1.36444 6.08918 0.28916 -0.106789 0.0175739 1.60696 0.0672804 0.344544 
89 12.8755 0.533301 6.41634 0.389048 0.525103 -0.0261532 0.607014 -0.223241 -0.624927 
118 11.3677 5.25493 6.12169 0.00669847 -0.512435 -0.0384803 -0.139956 -0.507657 -0.447613 
119 13.5329 4.14563 6.16688 0.36902 -0.017148 -0.0630168 0.634882 -0.123563 1.0356 
98 9.30325 1.52923 6.14235 -0.0456342 -0.0646663 -0.114289 1.06805 -0.1904 -1.25479 
106 13.6167 1.73385 6.24458 -0.170179 -0.417587 -0.157483 -0.527195 1.52917 -0.0986508 
102 12.8419 2.91679 6.17995 -0.0521736 -0.0710019 0.0883835 0.704371 0.12158 -0.736919 
127 7.04337 7.48291 6.08751 0.158696 -0.0584782 -0.0980113 0.737801 -0.277501 1.37059 
128 8.46085 7.55873 6.09676 0.311134 0.280759 -0.0165976 0.25876 0.132347 0.627553 
9 14.9136 6.62504 6.11907 -0.473961 0.38681 0.0493162 0.791812 -0.343698 0.0257354 
10 17.0728 5.49526 6.20084 -0.739269 -0.143576 -0.133546 0.106083 0.853452 0.0927405 
97 8.51961 2.70715 6.11418 0.169414 0.229484 0.0874801 -0.395615 -0.725875 -0.767031 
129 9.20453 6.36131 6.1113 -0.18633 0.0387668 -0.130227 0.788659 0.436625 0.45983 
101 10.6611 4.0203 6.13907 -0.281772 0.501251 -0.0771039 -0.000798868 0.30969 0.344652 
1 10.6252 6.44137 6.09512 -0.318871 0.278063 0.0776965 0.114335 1.06158 0.448012 
13 13.4889 6.55216 6.12586 0.278348 0.222235 -0.0660851 -0.230554 -0.711836 -0.415595 
2 12.7861 5.33057 6.13365 -0.181724 -0.00213666 0.0471473 0.625736 -1.01933 0.394091 
11 19.2202 4.34819 6.2829 -0.0835539 -0.210233 -0.00498087 0.243825 0.735631 1.38603 
105 11.4118 2.83594 6.15575 0.134423 0.103046 -0.0503376 -0.697793 0.622037 0.232183 
14 15.6531 5.43979 6.13665 0.430153 -0.284082 0.227286 0.196999 -0.421927 -0.694497 
15 17.8068 4.30374 6.2199 0.201703 -0.239459 0.0814493 -0.593731 0.372056 0.0143163 
3 14.9556 4.2165 6.16932 -0.44651 0.28331 -0.151426 -1.10214 -0.877652 0.541104 
113 7.0566 5.04401 6.09671 0.0673681 -0.163693 -0.0519221 -0.166802 0.222444 -0.0222088 
114 8.4809 5.13865 6.10574 0.208949 -0.404689 0.0350995 -0.120224 0.931742 0.768692 
24 19.1683 6.76096 6.21976 0.677297 0.17304 0.00133956 0.575081 1.01387 0.336226 
115 9.23235 3.93983 6.11588 -0.156241 0.118339 0.0326421 -0.220371 -0.697551 1.45088 
120 15.6973 3.03543 6.15399 0.188973 -0.28916 -0.0273239 -1.06612 1.11192 1.42868 
28 17.763 6.71344 6.19341 -0.0459239 0.294589 0.0368321 0.0437591 0.56053 -0.17446 
5 19.2603 1.92371 6.346 -0.115387 0.298839 0.118108 -0.666008 -0.758598 1.20526 
88 10.7031 1.60981 6.16675 -0.00236021 -0.140868 0.0365273 0.776311 0.128214 -0.574283 
84 7.19118 0.230953 6.08555 -0.201022 -0.000990215 -0.00635323 0.0196758 1.84771 0.910963 
112 6.32663 6.25053 6.07024 -0.0385533 -0.163515 0.19646 0.17612 0.58275 0.622586 
4 17.1164 3.07259 6.18857 0.111167 0.51825 0.0567536 -0.799899 0.194993 1.8493 
142 7.03273 14.8377 6.08566 -0.105969 0.0497179 0.00215277 0.910653 0.510014 -0.576568 
20 10.5717 11.3024 6.11416 0.427606 0.106567 -0.114579 -0.0899719 -0.198795 0.136273 
143 8.44753 14.8918 6.08374 -0.083591 0.41541 0.0125206 1.17657 -0.0061725 -0.104206 
40 11.2954 12.5304 6.1017 0.0276973 0.1507 -0.0194222 -0.0551518 -0.593101 -0.62128 
68 9.1535 16.1329 6.08352 0.374138 -0.199779 0.0299283 -0.116862 1.28041 1.00775 
52 10.5768 16.1928 6.08927 -0.601124 0.0132729 0.00310573 -1.65895 0.29217 0.868741 
144 9.16164 13.6826 6.08692 0.0707033 -0.298771 -0.0392408 -1.10866 -0.263 -0.486455 
140 8.44595 12.45 6.07805 0.0828106 0.00287996 -0.0230632 -0.117141 -1.60296 0.773888 
139 7.03425 12.3764 6.07295 0.0594795 0.420184 0.0792378 -0.198113 -0.631157 2.07142 
134 7.04059 9.931 6.09291 -0.0981481 -0.131623 -0.102776 -1.19199 -0.390193 0.769783 
133 6.32643 11.1459 6.08013 -0.246752 -0.0825097 0.0800476 -0.489454 1.93201 -0.3305 
141 9.16159 11.2403 6.08144 -0.0472244 -0.356798 0.137784 -0.0085478 -0.868409 0.788562 
35 10.5779 13.7413 6.10002 -0.190466 0.285263 0.0688523 -0.0550082 1.22157 0.419586 
319 8.44116 24.6952 6.0561 -0.00576063 0.261984 0.239109 0.565938 -0.648953 1.04976 
293 7.02521 22.2034 6.10271 -0.0544591 0.331474 0.0558757 1.26186 -1.00065 -0.858488 
67 8.44289 17.3469 6.08541 0.203326 0.305707 0.0180538 -1.75816 -0.630846 -0.138949 
193 12.7029 17.4749 6.10075 -0.0477626 -0.080377 -0.0299791 -0.0111092 -0.673024 0.73475 
197 11.289 17.4193 6.07201 -0.0771758 0.0164427 0.138085 -1.22336 -0.248656 -0.732278 
283 14.8265 18.7663 6.1282 0.124556 -0.787572 -0.0644311 -0.486715 -0.601766 -1.34732 
284 16.9641 17.6014 6.09664 0.119754 -0.152861 -0.11116 0.25299 -0.505644 -0.98623 
292 6.31289 23.4279 6.09857 0.534887 -0.153392 -0.0673104 0.485243 -0.0266163 -0.155602 
301 14.8155 21.1934 6.11776 0.145592 -0.0479802 -0.0257191 -0.782066 -0.437575 0.448978 
282 12.6915 19.9096 6.09697 0.0942815 -0.00423804 0.150934 -0.116047 0.781197 0.815207 
304 15.5383 19.9827 6.11495 0.308213 0.161936 0.0229316 -1.2293 -0.0144629 -0.105688 
305 17.6793 18.8261 6.08644 -0.155764 -0.561583 0.0354988 0.540984 -1.03014 -0.96187 
309 10.5579 23.5242 6.11304 0.39695 -0.067256 -0.0599146 -0.293534 -0.495796 -0.921475 
310 12.6824 22.3507 6.0928 0.349732 -0.0419319 0.047355 -0.0935072 -0.416105 -0.548633 
312 13.4027 21.1341 6.10883 -0.139502 0.315832 -0.0403623 0.386892 -0.940375 0.857994 
321 16.9432 22.4661 6.09406 -0.124822 -0.575175 0.121921 -0.662518 0.305601 0.212731 
322 19.0823 21.2927 6.09967 -0.180911 0.156364 0.0814255 0.84086 -0.345347 0.436274 
323 17.6649 21.2462 6.107 -0.00691243 0.521637 -0.0477007 -0.913874 1.43123 -0.44469 
329 14.8091 23.6323 6.08884 0.23017 -0.217446 0.0563828 0.95207 0.0953707 1.26975 
331 13.4028 23.5764 6.08586 -0.479711 -0.0130706 0.0170764 -0.648293 1.73227 0.84981 
332 15.527 22.4211 6.11438 0.0890412 -0.179049 -0.0902402 1.03178 -0.009272 1.0296 
348 16.9362 24.9021 6.09469 -0.188382 -0.426639 -0.0342158 0.136427 -0.957573 1.77466 
351 15.5241 24.8516 6.09251 -0.0833403 0.176629 -0.0547008 -0.113821 -1.15258 2.25443 
352 17.6471 23.6848 6.10012 0.540784 0.336118 0.130053 -0.58338 -1.06832 0.492475 
206 6.32057 20.9732 6.10551 -0.148164 -0.26534 0.0496488 0.237041 -0.186577 -0.781034 
328 12.6823 24.7888 6.09579 0.0534578 0.234393 0.0436896 -0.0999911 0.265626 0.618174 
330 11.2679 24.7508 6.12324 0.130879 -0.0618515 -0.0699141 -1.85546 -0.28829 0.852783 
288 15.5501 17.5446 6.10479 -0.0989758 0.665603 -0.0101003 1.66875 0.0656678 -0.970519 
287 13.4132 18.7011 6.12288 0.0223404 0.0687988 -0.126017 1.1351 -0.0203578 1.0177 
286 11.2811 19.8543 6.10134 -0.171247 0.401088 -0.050651 0.709827 -0.888799 -0.228848 
281 10.562 21.0751 6.11615 0.117608 -0.00955506 -0.0120878 0.89895 1.71784 -0.954161 
209 9.16318 18.5812 6.08249 -0.647549 -0.17587 0.11024 -0.367208 0.910179 -0.194328 
302 16.9574 20.025 6.10416 -0.355815 0.258185 -0.0117951 -0.198586 -0.301785 -0.625618 
192 10.5682 18.631 6.09014 0.343185 -0.071535 -0.0696178 -1.82374 0.942477 -0.639347 
311 11.2707 22.3083 6.0988 -0.0464793 -0.182284 0.035815 0.584641 0.288341 1.51927 
137 4.90868 13.5452 6.09765 0 0 0 0 0 0 
132 4.90868 11.0852 6.09765 0 0 0 0 0 0 
125 4.90868 8.62519 6.09765 0 0 0 0 0 0 
50 4.90868 16.0052 6.09765 0 0 0 0 0 0 
198 13.4212 16.263 6.08493 -0.0507208 0.151861 0.103642 1.37248 0.819235 -0.436251 
290 19.8161 15.2419 6.07575 0.109254 -0.15086 0.00568208 -0.315872 1.52323 0.643208 
60 17.7078 11.5384 6.12051 0.312045 0.24471 -0.0749099 0.116914 1.18263 -0.237612 
59 15.5693 12.6879 6.1037 -0.0830498 0.268822 0.0795873 0.37917 0.940291 0.493708 
7 10.5954 8.86933 6.08351 -0.186818 -0.0669864 0.0709428 -0.6229 0.0594736 -2.46248 
58 13.4302 13.8289 6.10308 -0.27081 0.345452 0.0601225 1.30039 -1.52165 -1.66294 
56 19.128 11.5958 6.12128 -0.0772263 0.300715 0.00959672 -1.37462 -0.995558 -0.588456 
138 6.32303 13.5977 6.08799 -0.0262305 0.0684301 -0.0643987 0.911841 -0.846435 -0.327492 
194 14.834 16.3308 6.08348 -0.0716308 -0.688901 0.0649409 0.946997 0.221691 0.23946 
53 12.7022 15.0392 6.12294 0.118971 -0.106375 -0.158177 1.39054 0.664758 -1.13891 
195 16.9644 15.1737 6.06115 0.198837 -0.399211 0.107298 -0.425316 0.722557 1.29045 
43 17.7355 9.13277 6.15351 -0.0933656 -0.317911 -0.0838322 -2.22788 0.216241 -0.51312 
42 15.5805 10.2607 6.14075 -0.0932993 0.551154 -0.0609435 0.763679 -0.114845 -1.07492 
196 19.107 14.0258 6.0645 -0.110575 -0.225856 0.147411 0.251462 -1.27163 -1.29658 
39 19.1448 9.18114 6.13868 0.350926 -0.0164721 0.0705055 -0.301814 -1.33453 1.18131 
285 19.099 16.4414 6.07083 -0.394361 7.99725e-05 0.0512874 0.515108 -0.0634344 0.688869 
38 16.9986 10.3218 6.11113 -0.182802 0.153549 0.186665 -0.0478615 0.285424 0.986833 
26 13.4551 8.97352 6.14254 -0.0402486 0.0705274 -0.124865 -0.298014 -0.829194 0.532561 
22 14.8719 9.04183 6.13913 -0.0451899 0.0328913 -0.0123549 1.93939 1.56724 -1.30941 
8 12.7425 7.74431 6.11836 0.329539 0.28247 0.0411635 -0.412815 1.06607 0.673316 
12 11.3277 7.67147 6.08985 0.0923914 -0.111559 0.0907468 0.575637 0.589135 -0.468039 
23 17.0281 7.91318 6.17574 0.0183223 -0.216787 -0.0921411 -0.695377 -0.0357826 -1.3887 
27 15.6156 7.85336 6.13289 -0.15699 -0.306173 0.0915816 -0.156862 -0.168162 0.170838 
289 17.6854 16.3863 6.07497 -0.124683 0.4371 -0.0416104 0.0141196 0.112406 -0.648413 
57 11.2844 14.9824 6.12357 0.308819 -0.480197 -0.170534 1.17615 -0.107584 -0.502642 
41 13.4372 11.4078 6.12631 -0.247396 -0.16132 -0.0561614 -0.164289 0.0310463 -0.356118 
135 8.4522 10.0006 6.09476 0.128841 0.183699 -0.0703045 0.585213 -0.147908 -1.24859 
136 9.17778 8.79282 6.08165 -0.0153366 0.00351729 0.0633631 -0.23452 0.677305 -0.0701918 
199 15.552 15.113 6.09238 0.13405 0.622861 -0.107413 1.11299 -0.425194 -0.0432995 
21 12.7218 10.1807 6.12063 -0.0804565 -0.293578 0.078807 0.604045 0.0425232 -1.08222 
25 11.3002 10.0943 6.10317 0.319071 0.486832 0.070464 -0.0681987 0.2122 -1.18583 
36 12.7098 12.612 6.09827 -0.000323623 -0.388422 0.105952 -0.623423 0.176373 -0.0501148 
37 14.846 11.4741 6.12857 0.516989 -0.550081 -0.0103077 0.402513 -0.474021 1.63294 
126 6.32544 8.69439 6.07466 -0.070676 0.122866 0.161805 0.501687 -0.923441 -0.629943 
200 17.6929 13.9636 6.06926 -0.0411751 0.276348 0.0263974 1.39635 0.668465 -1.26343 
51 6.32051 16.0636 6.08554 0.222644 -0.304756 0.00164824 -0.560311 0.811205 -1.07896 
55 16.9848 12.7418 6.09522 -0.180632 0.00923641 0.0276402 0.906066 -0.354141 -1.21792 
54 14.844 13.8985 6.11581 -0.158297 -0.524158 -0.166234 0.516633 -1.03812 -0.224739 
64 4.90868 18.4652 6.09765 0 0 0 0 0 0 
295 9.14767 21.0327 6.13811 0.0128171 -0.0278146 -0.112903 0.548652 -0.519087 -0.638546 
291 4.90868 23.3852 6.09765 0 0 0 0 0 0 
205 4.90868 20.9252 6.09765 0 0 0 0 0 0 
306 19.8067 17.656 6.08287 0.396489 -0.0292566 -0.0771646 0.357437 -0.938808 -1.40408 
207 7.01794 19.7438 6.11904 0.65812 0.414077 -0.0106723 -1.31254 0.0264865 0.892635 
65 6.31866 18.5123 6.11086 0.0825804 -0.0743201 -0.0150182 0.0264245 0.517315 1.06063 
294 8.43637 22.2526 6.12296 0.234121 -0.02309 -0.0754858 -0.520961 -0.190111 1.10205 
342 19.791 22.5211 6.13076 -0.176293 -0.160222 -0.0957867 -0.411842 0.473682 0.336758 
303 19.0889 18.8574 6.08375 0.0239245 0.490574 0.0222453 -0.586983 -0.970034 1.07294 
324 19.8007 20.0827 6.10351 -0.0716089 -0.109253 -0.0793245 0.163535 -0.253613 0.575408 
318 7.02423 24.6598 6.08883 0.267702 -0.363039 -0.0805743 -0.287848 0.492144 -0.116253 
320 9.1553 23.4797 6.10002 -0.612796 -0.0736244 0.00426572 -0.202342 0.28596 0.648397 
341 19.067 23.7327 6.15529 -0.210103 -0.510924 -0.202929 -0.924418 0.488332 -1.18947 
361 19.7843 24.9436 6.12726 0.193181 0.161337 0.107645 -0.613801 -0.545528 0.310915 
208 8.44346 19.798 6.12701 -0.325386 -0.185021 -0.0881234 -0.487797 -1.26542 -0.29791 
66 7.03478 17.2958 6.09119 -0.2951 0.0193551 0.0220507 0.453689 -0.695729 1.39902 
210 10.5652 30.8676 6.04813 0.119 0.345342 0.0559097 -0.338714 0.780686 0.627776 
217 12.6851 32.1355 6.05437 0.247982 -0.237203 0.0102778 0.00237675 0.417522 -1.02758 
374 9.15324 30.8403 6.03453 -0.217869 -0.134024 0.0322223 1.36659 -1.01575 -0.796053 
221 11.2742 32.1013 6.05492 -0.239454 0.0462204 0.00761976 0.102429 -1.06965 -0.00063295 
371 6.32799 33.2553 6.08496 -0.218502 -0.0372856 0.144226 0.763432 0.597786 -1.88916 
222 13.3896 30.9064 6.07431 0.124016 0.477595 -0.0866293 -0.259368 -0.39025 0.0929922 
225 19.775 27.3793 6.10401 -0.108909 -0.287628 -0.0403846 0.19294 0.421233 1.94504 
214 19.0623 26.1531 6.11417 0.168364 0.221608 -0.00231606 0.473855 2.01284 0.116906 
366 17.6488 26.1161 6.09742 0.205238 0.143964 -0.0313779 -0.0383526 -0.46803 -1.38202 
364 13.3935 28.4707 6.1084 0.412879 -0.278937 -0.0424717 -0.414306 1.03423 -1.29155 
213 16.9368 27.3289 6.08008 -0.122565 -0.204266 0.0644709 0.762799 0.880315 0.256817 
211 12.6844 29.683 6.09051 -0.0843401 0.0824837 0.0293078 -1.34215 1.46287 -0.878968 
238 19.7767 29.8087 6.07288 0.0556531 -0.244431 0.0597322 1.06274 -0.342531 -0.147136 
327 10.559 25.9693 6.11323 0.0229453 0.0612653 -0.109204 0.304956 0.689833 -1.02222 
237 17.6573 30.9875 6.06378 -0.225402 -0.0622388 -0.00419222 1.1543 -0.951787 1.57612 
365 15.5247 27.2847 6.10967 -0.0199895 0.189363 -0.217383 0.932466 -1.62774 -0.660271 
339 8.4404 27.1482 6.02961 0.0589083 0.191116 0.218664 -0.130128 -0.0422117 1.05079 
340 9.14615 25.9347 6.08147 0.0608859 -0.44197 -0.0730178 1.74142 2.09922 0.215795 
360 9.15403 28.3759 6.04183 -0.240044 0.200474 -0.0316136 -1.838 0.789966 2.33288 
350 13.3916 26.0193 6.10734 0.421003 -0.171334 -0.103856 -0.310169 0.277432 0.169306 
359 8.44947 29.6011 6.02941 0.0268814 0.136612 0.0692068 0.346425 -0.901426 0.445155 
346 12.6969 27.236 6.10496 -0.860246 0.219882 -0.0390707 -0.756664 0.395904 -0.0174081 
347 14.807 26.066 6.08875 -0.00294554 -0.245714 0.105686 -0.787472 1.00691 0.0841675 
349 11.2721 27.1968 6.09813 0.321952 0.113158 -0.0410412 0.373653 -1.05666 1.08233 
220 19.0551 28.5883 6.07652 0.409845 0.0336179 0.0565309 -1.11539 -0.358226 0.876624 
345 10.5626 28.418 6.05856 0.299335 -0.0404021 0.142552 1.28629 -0.48441 -1.78278 
219 16.9404 29.7687 6.05864 -0.178804 -0.227394 -0.015528 0.81983 -0.892635 -0.0865627 
363 11.2738 29.6502 6.08549 -0.131004 -0.294175 -0.142512 0.135382 -0.880751 0.171787 
212 14.8144 28.5025 6.08638 -0.227996 0.214296 0.0261322 -0.296396 -0.840768 -1.75262 
223 15.5233 29.7356 6.0607 -0.0594591 -0.179015 0.0446193 -0.432754 0.785579 -1.9611 
224 17.6471 28.5447 6.06723 -0.0956692 0.508116 0.0236853 -0.550465 0.630424 -0.0137222 
275 7.03302 41.8568 6.10506 -0.204766 0.100324 0.0627481 -1.37666 -0.164967 0.883057 
379 7.03445 34.4907 6.10696 -0.123809 -0.00638527 -0.104135 -1.12214 -1.42341 0.383604 
274 6.32886 43.0866 6.1093 -0.24917 -0.312446 -0.0651555 -1.35378 0.210612 0.996747 
799 9.14814 43.0965 6.09421 -0.107515 0.185387 0.10568 -0.157041 -0.291751 -1.73863 
782 10.5617 43.1206 6.10631 0.195959 0.245522 0.00461487 0.663874 -0.161441 0.588825 
276 8.44203 41.8679 6.10001 0.213666 0.145834 0.0141561 -0.767072 -1.73458 0.048405 
378 6.32141 35.7198 6.11319 0.17627 -0.485488 -0.0903029 0.375868 -0.944924 0.203406 
384 7.02857 36.943 6.09227 0.157523 0.0528958 0.0433013 -0.291999 0.340345 0.603363 
389 9.14646 38.1912 6.06257 0.275366 0.125372 0.0851045 -1.28249 1.33706 -0.362365 
370 4.90868 33.2252 6.09765 0 0 0 0 0 0 
317 6.32673 25.8778 6.08915 -0.486792 0.230977 -0.0456296 0.292244 1.18222 -0.214801 
356 4.90868 30.7652 6.09765 0 0 0 0 0 0 
336 4.90868 28.3052 6.09765 0 0 0 0 0 0 
316 4.90868 25.8452 6.09765 0 0 0 0 0 0 
337 6.31952 28.3359 6.04584 0.317412 0.00921831 0.180069 2.62564 -0.194091 0.497596 
338 7.03016 27.1072 6.06149 -0.170206 0.440359 -0.035486 -0.299487 -0.401244 -0.00451006 
233 19.0651 31.022 6.08025 0.111521 -0.0771606 -0.0114924 -1.12207 -0.636159 -1.05072 
381 9.15199 33.2923 6.05687 0.0538983 -0.0645008 0.168966 -0.0133141 0.522478 -0.6934 
216 10.5647 33.3291 6.07123 0.153749 -0.500325 -0.145625 1.04362 0.940754 -0.668657 
358 7.03742 29.5687 6.05689 -0.341439 -0.0569503 -0.0397212 0.38697 1.39994 1.29099 
373 8.44205 32.0645 6.06122 0.293624 -0.217869 0.0317378 -0.86568 0.171918 0.527478 
357 6.32541 30.7929 6.08527 0.0606487 0.0825031 0.0256373 -0.11886 -0.430309 0.0155377 
372 7.03289 32.0257 6.11126 -0.22845 0.174377 -0.263691 -0.692337 -1.33564 0.3624 
248 19.0647 33.4477 6.09284 -0.0168151 0.452936 -0.184086 -1.20192 1.12406 0.294529 
252 17.6535 33.4261 6.05987 -0.117683 -0.296331 -0.0232262 -0.610595 1.03039 0.989428 
218 14.8025 30.9503 6.052 0.226108 -0.139215 0.02756 -0.74155 0.64652 -1.89248 
236 15.5266 32.1683 6.0395 -0.0490897 0.290506 0.0411359 0.492453 0.68205 0.638258 
231 14.82 33.3952 6.04975 -0.0841294 -0.428515 -0.0875473 -0.00384827 -1.85551 2.1864 
253 19.777 32.2385 6.09135 0.175781 -0.0298644 -0.0152535 0.974827 0.243322 0.424457 
235 13.4072 33.3562 6.0478 -0.117407 0.130892 -0.0493513 0.512188 -0.370142 0.887019 
232 16.9429 32.1984 6.05236 -0.153827 0.246335 0.0341726 -1.51902 0.339287 0.573382 
259 4.90868 40.6052 6.09765 0 0 0 0 0 0 
273 4.90868 43.0652 6.09765 0 0 0 0 0 0 
377 4.90868 35.6852 6.09765 0 0 0 0 0 0 
382 4.90868 38.1452 6.09765 0 0 0 0 0 0 
878 15.5253 41.9461 6.05768 -0.281919 -0.0219694 -0.0516284 -0.0943188 -1.64268 -0.72023 
874 16.941 41.9618 6.04836 -0.0464706 0.185692 -0.0442329 0.192386 -1.35662 0.590843 
262 12.6855 39.4707 6.04083 0.203554 0.0613094 0.0510965 0.143021 -0.529216 -1.44744 
385 8.44362 36.9639 6.08561 -0.048936 -0.111926 -0.0487671 -1.00947 -0.697629 -1.35972 
249 11.2717 37.0016 6.06279 0.503526 -0.179383 -0.0595623 -0.750719 0.0678258 -0.202465 
244 10.5638 38.2187 6.0582 -0.201985 0.000961292 -0.00926201 0.814553 -1.7318 -0.676385 
277 9.15022 40.6471 6.10014 0.0592871 -0.0574933 -0.10679 0.474252 -0.0973208 -1.09769 
266 11.2708 39.4443 6.05561 0.0982111 0.149395 0.05226 0.946836 -1.62964 1.47816 
387 7.02959 39.3951 6.09502 0.0204427 0.285067 -0.0309085 -0.624362 -0.0613749 -0.515682 
388 8.44485 39.4177 6.0808 -0.083505 -0.0090523 0.0511012 0.413837 -0.431896 -1.40004 
267 13.4037 38.251 6.05696 -0.0633136 0.168387 -0.152216 0.769403 -0.0252779 -1.04723 
265 19.0608 35.8957 6.04563 -0.177902 -0.152 -0.0495861 0.380665 -0.49628 1.37563 
783 12.6867 41.9218 6.07159 -0.0646349 -0.160486 0.13418 -0.330597 -0.020843 -0.0514067 
784 14.8087 40.7208 6.0216 0.351585 -0.0562352 0.113746 -1.82128 -1.05758 -0.30465 
269 17.642 35.8646 6.03028 0.472548 -0.0933188 0.0323636 1.1274 -0.145132 0.0167616 
787 11.2741 41.8982 6.10775 -0.135954 0.010008 -0.0962946 -0.675362 -0.827512 0.0871351 
788 13.3969 40.7019 6.03615 -0.160083 -0.207838 0.0106483 -0.387439 0.316822 -1.19808 
790 17.6518 38.3019 6.0556 -0.0465566 0.166828 -0.0697259 -0.0864342 -1.4271 0.683114 