ITEM: TIMESTEP
3000
ITEM: NUMBER OF ATOMS
4798
ITEM: BOX BOUNDS ff ff ff
-10.3577 110.358
-10.0998 131.9
-100.402 112.598
ITEM: ATOMS id x y z fx fy fz vx vy vz 
72 -0.062301 2.4752 6.09765 0 0 0 0 0 0 
110 4.19854 7.39519 6.09765 0 0 0 0 0 0 
109 2.77826 7.39519 6.09765 0 0 0 0 0 0 
93 4.19854 4.9352 6.09765 0 0 0 0 0 0 
92 2.77826 4.9352 6.09765 0 0 0 0 0 0 
91 2.06812 6.16519 6.09765 0 0 0 0 0 0 
87 0.647839 6.16519 6.09765 0 0 0 0 0 0 
86 -0.062301 7.39519 6.09765 0 0 0 0 0 0 
81 4.19854 2.4752 6.09765 0 0 0 0 0 0 
80 2.77826 2.4752 6.09765 0 0 0 0 0 0 
79 2.06812 3.7052 6.09765 0 0 0 0 0 0 
78 0.647839 3.7052 6.09765 0 0 0 0 0 0 
77 -0.062301 4.9352 6.09765 0 0 0 0 0 0 
76 4.19854 0.015197 6.09765 0 0 0 0 0 0 
75 2.77826 0.015197 6.09765 0 0 0 0 0 0 
74 2.06812 1.2452 6.09765 0 0 0 0 0 0 
73 0.647839 1.2452 6.09765 0 0 0 0 0 0 
6 -0.062301 12.3152 6.09765 0 0 0 0 0 0 
131 4.19854 12.3152 6.09765 0 0 0 0 0 0 
130 2.77826 12.3152 6.09765 0 0 0 0 0 0 
124 4.19854 9.85519 6.09765 0 0 0 0 0 0 
123 2.77826 9.85519 6.09765 0 0 0 0 0 0 
122 2.06812 11.0852 6.09765 0 0 0 0 0 0 
117 0.647839 11.0852 6.09765 0 0 0 0 0 0 
108 2.06812 8.62519 6.09765 0 0 0 0 0 0 
100 0.647839 8.62519 6.09765 0 0 0 0 0 0 
99 -0.062301 9.85519 6.09765 0 0 0 0 0 0 
34 4.19854 14.7752 6.09765 0 0 0 0 0 0 
33 2.77826 14.7752 6.09765 0 0 0 0 0 0 
32 2.06812 16.0052 6.09765 0 0 0 0 0 0 
31 0.647839 16.0052 6.09765 0 0 0 0 0 0 
19 2.06812 13.5452 6.09765 0 0 0 0 0 0 
18 0.647839 13.5452 6.09765 0 0 0 0 0 0 
17 -0.062301 14.7752 6.09765 0 0 0 0 0 0 
300 4.19854 24.6152 6.09765 0 0 0 0 0 0 
299 2.77826 24.6152 6.09765 0 0 0 0 0 0 
204 4.19854 22.1552 6.09765 0 0 0 0 0 0 
203 2.77826 22.1552 6.09765 0 0 0 0 0 0 
202 2.06812 23.3852 6.09765 0 0 0 0 0 0 
191 0.647839 23.3852 6.09765 0 0 0 0 0 0 
190 -0.062301 24.6152 6.09765 0 0 0 0 0 0 
71 2.06812 20.9252 6.09765 0 0 0 0 0 0 
70 0.647839 20.9252 6.09765 0 0 0 0 0 0 
69 -0.062301 22.1552 6.09765 0 0 0 0 0 0 
63 4.19854 19.6952 6.09765 0 0 0 0 0 0 
62 2.77826 19.6952 6.09765 0 0 0 0 0 0 
49 4.19854 17.2352 6.09765 0 0 0 0 0 0 
48 2.77826 17.2352 6.09765 0 0 0 0 0 0 
47 2.06812 18.4652 6.09765 0 0 0 0 0 0 
46 0.647839 18.4652 6.09765 0 0 0 0 0 0 
45 -0.062301 19.6952 6.09765 0 0 0 0 0 0 
30 -0.062301 17.2352 6.09765 0 0 0 0 0 0 
355 4.19854 31.9952 6.09765 0 0 0 0 0 0 
354 2.77826 31.9952 6.09765 0 0 0 0 0 0 
353 2.06812 33.2252 6.09765 0 0 0 0 0 0 
344 0.647839 33.2252 6.09765 0 0 0 0 0 0 
335 4.19854 29.5352 6.09765 0 0 0 0 0 0 
334 2.77826 29.5352 6.09765 0 0 0 0 0 0 
333 2.06812 30.7652 6.09765 0 0 0 0 0 0 
326 0.647839 30.7652 6.09765 0 0 0 0 0 0 
325 -0.062301 31.9952 6.09765 0 0 0 0 0 0 
315 4.19854 27.0752 6.09765 0 0 0 0 0 0 
314 2.77826 27.0752 6.09765 0 0 0 0 0 0 
313 2.06812 28.3052 6.09765 0 0 0 0 0 0 
308 0.647839 28.3052 6.09765 0 0 0 0 0 0 
307 -0.062301 29.5352 6.09765 0 0 0 0 0 0 
298 2.06812 25.8452 6.09765 0 0 0 0 0 0 
297 0.647839 25.8452 6.09765 0 0 0 0 0 0 
296 -0.062301 27.0752 6.09765 0 0 0 0 0 0 
215 -0.062301 36.9152 6.09765 0 0 0 0 0 0 
376 4.19854 36.9152 6.09765 0 0 0 0 0 0 
375 2.77826 36.9152 6.09765 0 0 0 0 0 0 
369 4.19854 34.4552 6.09765 0 0 0 0 0 0 
368 2.77826 34.4552 6.09765 0 0 0 0 0 0 
367 2.06812 35.6852 6.09765 0 0 0 0 0 0 
362 0.647839 35.6852 6.09765 0 0 0 0 0 0 
343 -0.062301 34.4552 6.09765 0 0 0 0 0 0 
258 4.19854 41.8352 6.09765 0 0 0 0 0 0 
257 2.77826 41.8352 6.09765 0 0 0 0 0 0 
256 2.06812 43.0652 6.09765 0 0 0 0 0 0 
255 0.647839 43.0652 6.09765 0 0 0 0 0 0 
243 4.19854 39.3752 6.09765 0 0 0 0 0 0 
242 2.77826 39.3752 6.09765 0 0 0 0 0 0 
241 2.06812 40.6052 6.09765 0 0 0 0 0 0 
240 0.647839 40.6052 6.09765 0 0 0 0 0 0 
239 -0.062301 41.8352 6.09765 0 0 0 0 0 0 
228 2.06812 38.1452 6.09765 0 0 0 0 0 0 
227 0.647839 38.1452 6.09765 0 0 0 0 0 0 
226 -0.062301 39.3752 6.09765 0 0 0 0 0 0 
254 -0.062301 44.2952 6.09765 0 0 0 0 0 0 
905 4.19854 51.6752 6.09765 0 0 0 0 0 0 
904 2.77826 51.6752 6.09765 0 0 0 0 0 0 
890 4.19854 49.2152 6.09765 0 0 0 0 0 0 
889 2.77826 49.2152 6.09765 0 0 0 0 0 0 
888 2.06812 50.4452 6.09765 0 0 0 0 0 0 
887 0.647839 50.4452 6.09765 0 0 0 0 0 0 
886 -0.062301 51.6752 6.09765 0 0 0 0 0 0 
794 4.19854 46.7552 6.09765 0 0 0 0 0 0 
793 2.77826 46.7552 6.09765 0 0 0 0 0 0 
792 2.06812 47.9852 6.09765 0 0 0 0 0 0 
781 0.647839 47.9852 6.09765 0 0 0 0 0 0 
780 -0.062301 49.2152 6.09765 0 0 0 0 0 0 
280 2.06812 45.5252 6.09765 0 0 0 0 0 0 
279 0.647839 45.5252 6.09765 0 0 0 0 0 0 
278 -0.062301 46.7552 6.09765 0 0 0 0 0 0 
272 4.19854 44.2952 6.09765 0 0 0 0 0 0 
271 2.77826 44.2952 6.09765 0 0 0 0 0 0 
959 4.19854 59.0552 6.09765 0 0 0 0 0 0 
958 2.77826 59.0552 6.09765 0 0 0 0 0 0 
957 2.06812 60.2852 6.09765 0 0 0 0 0 0 
952 0.647839 60.2852 6.09765 0 0 0 0 0 0 
945 4.19854 56.5952 6.09765 0 0 0 0 0 0 
944 2.77826 56.5952 6.09765 0 0 0 0 0 0 
943 2.06812 57.8252 6.09765 0 0 0 0 0 0 
934 0.647839 57.8252 6.09765 0 0 0 0 0 0 
933 -0.062301 59.0552 6.09765 0 0 0 0 0 0 
925 4.19854 54.1352 6.09765 0 0 0 0 0 0 
924 2.77826 54.1352 6.09765 0 0 0 0 0 0 
923 2.06812 55.3652 6.09765 0 0 0 0 0 0 
916 0.647839 55.3652 6.09765 0 0 0 0 0 0 
915 -0.062301 56.5952 6.09765 0 0 0 0 0 0 
903 2.06812 52.9052 6.09765 0 0 0 0 0 0 
898 0.647839 52.9052 6.09765 0 0 0 0 0 0 
897 -0.062301 54.1352 6.09765 0 0 0 0 0 0 
805 -0.062301 61.5152 6.09765 0 0 0 0 0 0 
966 4.19854 61.5152 6.09765 0 0 0 0 0 0 
965 2.77826 61.5152 6.09765 0 0 0 0 0 0 
862 4.19854 68.8952 6.09765 0 0 0 0 0 0 
861 2.77826 68.8952 6.09765 0 0 0 0 0 0 
848 4.19854 66.4352 6.09765 0 0 0 0 0 0 
847 2.77826 66.4352 6.09765 0 0 0 0 0 0 
846 2.06812 67.6652 6.09765 0 0 0 0 0 0 
845 0.647839 67.6652 6.09765 0 0 0 0 0 0 
844 -0.062301 68.8952 6.09765 0 0 0 0 0 0 
833 4.19854 63.9752 6.09765 0 0 0 0 0 0 
832 2.77826 63.9752 6.09765 0 0 0 0 0 0 
831 2.06812 65.2052 6.09765 0 0 0 0 0 0 
830 0.647839 65.2052 6.09765 0 0 0 0 0 0 
829 -0.062301 66.4352 6.09765 0 0 0 0 0 0 
818 2.06812 62.7452 6.09765 0 0 0 0 0 0 
817 0.647839 62.7452 6.09765 0 0 0 0 0 0 
816 -0.062301 63.9752 6.09765 0 0 0 0 0 0 
1828 4.19854 76.2752 6.09765 0 0 0 0 0 0 
1827 2.77826 76.2752 6.09765 0 0 0 0 0 0 
1826 2.06812 77.5052 6.09765 0 0 0 0 0 0 
1821 0.647839 77.5052 6.09765 0 0 0 0 0 0 
1813 4.19854 73.8152 6.09765 0 0 0 0 0 0 
1812 2.77826 73.8152 6.09765 0 0 0 0 0 0 
1811 2.06812 75.0452 6.09765 0 0 0 0 0 0 
1810 0.647839 75.0452 6.09765 0 0 0 0 0 0 
1809 -0.062301 76.2752 6.09765 0 0 0 0 0 0 
1717 4.19854 71.3552 6.09765 0 0 0 0 0 0 
1716 2.77826 71.3552 6.09765 0 0 0 0 0 0 
1715 2.06812 72.5852 6.09765 0 0 0 0 0 0 
1704 0.647839 72.5852 6.09765 0 0 0 0 0 0 
1703 -0.062301 73.8152 6.09765 0 0 0 0 0 0 
870 2.06812 70.1252 6.09765 0 0 0 0 0 0 
869 0.647839 70.1252 6.09765 0 0 0 0 0 0 
868 -0.062301 71.3552 6.09765 0 0 0 0 0 0 
1728 -0.062301 86.1152 6.09765 0 0 0 0 0 0 
1889 4.19854 86.1152 6.09765 0 0 0 0 0 0 
1888 2.77826 86.1152 6.09765 0 0 0 0 0 0 
1882 4.19854 83.6552 6.09765 0 0 0 0 0 0 
1881 2.77826 83.6552 6.09765 0 0 0 0 0 0 
1880 2.06812 84.8852 6.09765 0 0 0 0 0 0 
1875 0.647839 84.8852 6.09765 0 0 0 0 0 0 
1868 4.19854 81.1952 6.09765 0 0 0 0 0 0 
1867 2.77826 81.1952 6.09765 0 0 0 0 0 0 
1866 2.06812 82.4252 6.09765 0 0 0 0 0 0 
1857 0.647839 82.4252 6.09765 0 0 0 0 0 0 
1856 -0.062301 83.6552 6.09765 0 0 0 0 0 0 
1848 4.19854 78.7352 6.09765 0 0 0 0 0 0 
1847 2.77826 78.7352 6.09765 0 0 0 0 0 0 
1846 2.06812 79.9652 6.09765 0 0 0 0 0 0 
1839 0.647839 79.9652 6.09765 0 0 0 0 0 0 
1838 -0.062301 81.1952 6.09765 0 0 0 0 0 0 
1820 -0.062301 78.7352 6.09765 0 0 0 0 0 0 
1741 2.06812 87.3452 6.09765 0 0 0 0 0 0 
1740 0.647839 87.3452 6.09765 0 0 0 0 0 0 
2677 4.19854 95.9552 6.09765 0 0 0 0 0 0 
2676 2.77826 95.9552 6.09765 0 0 0 0 0 0 
1793 2.06812 94.7252 6.09765 0 0 0 0 0 0 
1792 0.647839 94.7252 6.09765 0 0 0 0 0 0 
1791 -0.062301 95.9552 6.09765 0 0 0 0 0 0 
1785 4.19854 93.4952 6.09765 0 0 0 0 0 0 
1784 2.77826 93.4952 6.09765 0 0 0 0 0 0 
1771 4.19854 91.0352 6.09765 0 0 0 0 0 0 
1770 2.77826 91.0352 6.09765 0 0 0 0 0 0 
1769 2.06812 92.2652 6.09765 0 0 0 0 0 0 
1768 0.647839 92.2652 6.09765 0 0 0 0 0 0 
1767 -0.062301 93.4952 6.09765 0 0 0 0 0 0 
1756 4.19854 88.5752 6.09765 0 0 0 0 0 0 
1755 2.77826 88.5752 6.09765 0 0 0 0 0 0 
1754 2.06812 89.8052 6.09765 0 0 0 0 0 0 
1753 0.647839 89.8052 6.09765 0 0 0 0 0 0 
1752 -0.062301 91.0352 6.09765 0 0 0 0 0 0 
1739 -0.062301 88.5752 6.09765 0 0 0 0 0 0 
2663 -0.062301 98.4152 6.09765 0 0 0 0 0 0 
2808 4.19854 103.335 6.09765 0 0 0 0 0 0 
2807 2.77826 103.335 6.09765 0 0 0 0 0 0 
2806 2.06812 104.565 6.09765 0 0 0 0 0 0 
2799 0.647839 104.565 6.09765 0 0 0 0 0 0 
2788 4.19854 100.875 6.09765 0 0 0 0 0 0 
2787 2.77826 100.875 6.09765 0 0 0 0 0 0 
2786 2.06812 102.105 6.09765 0 0 0 0 0 0 
2781 0.647839 102.105 6.09765 0 0 0 0 0 0 
2780 -0.062301 103.335 6.09765 0 0 0 0 0 0 
2773 4.19854 98.4152 6.09765 0 0 0 0 0 0 
2772 2.77826 98.4152 6.09765 0 0 0 0 0 0 
2771 2.06812 99.6452 6.09765 0 0 0 0 0 0 
2770 0.647839 99.6452 6.09765 0 0 0 0 0 0 
2769 -0.062301 100.875 6.09765 0 0 0 0 0 0 
2675 2.06812 97.1852 6.09765 0 0 0 0 0 0 
2664 0.647839 97.1852 6.09765 0 0 0 0 0 0 
2849 4.19854 110.715 6.09765 0 0 0 0 0 0 
2848 2.77826 110.715 6.09765 0 0 0 0 0 0 
2842 4.19854 108.255 6.09765 0 0 0 0 0 0 
2841 2.77826 108.255 6.09765 0 0 0 0 0 0 
2840 2.06812 109.485 6.09765 0 0 0 0 0 0 
2835 0.647839 109.485 6.09765 0 0 0 0 0 0 
2828 4.19854 105.795 6.09765 0 0 0 0 0 0 
2827 2.77826 105.795 6.09765 0 0 0 0 0 0 
2826 2.06812 107.025 6.09765 0 0 0 0 0 0 
2817 0.647839 107.025 6.09765 0 0 0 0 0 0 
2816 -0.062301 108.255 6.09765 0 0 0 0 0 0 
2798 -0.062301 105.795 6.09765 0 0 0 0 0 0 
2716 4.19854 113.175 6.09765 0 0 0 0 0 0 
2715 2.77826 113.175 6.09765 0 0 0 0 0 0 
2701 2.06812 111.945 6.09765 0 0 0 0 0 0 
2700 0.647839 111.945 6.09765 0 0 0 0 0 0 
2699 -0.062301 113.175 6.09765 0 0 0 0 0 0 
2688 -0.062301 110.715 6.09765 0 0 0 0 0 0 
2712 -0.062301 115.635 6.09765 0 0 0 0 0 0 
3636 4.19854 120.555 6.09765 0 0 0 0 0 0 
3635 2.77826 120.555 6.09765 0 0 0 0 0 0 
3634 2.06812 121.785 6.09765 0 0 0 0 0 0 
3623 0.647839 121.785 6.09765 0 0 0 0 0 0 
2753 2.06812 119.325 6.09765 0 0 0 0 0 0 
2752 0.647839 119.325 6.09765 0 0 0 0 0 0 
2751 -0.062301 120.555 6.09765 0 0 0 0 0 0 
2745 4.19854 118.095 6.09765 0 0 0 0 0 0 
2744 2.77826 118.095 6.09765 0 0 0 0 0 0 
2731 4.19854 115.635 6.09765 0 0 0 0 0 0 
2730 2.77826 115.635 6.09765 0 0 0 0 0 0 
2729 2.06812 116.865 6.09765 0 0 0 0 0 0 
2728 0.647839 116.865 6.09765 0 0 0 0 0 0 
2727 -0.062301 118.095 6.09765 0 0 0 0 0 0 
2714 2.06812 114.405 6.09765 0 0 0 0 0 0 
2713 0.647839 114.405 6.09765 0 0 0 0 0 0 
95 6.34416 3.80237 6.08734 -0.222198 -0.0285639 -0.0162432 -1.64062 0.0450682 0.904992 
5 19.3059 1.92373 6.18617 -0.303058 0.0419672 -0.142324 -0.302525 0.626274 1.39952 
96 7.08416 2.60195 6.08975 -0.0752592 0.109674 -0.0280731 0.444191 0.511063 -0.00629599 
104 17.1903 0.717956 5.79691 0.0116211 -0.258377 -0.0127641 -1.74652 0.565909 -0.844527 
112 6.32929 6.24482 6.07645 0.264673 -0.0865426 -1.41415e-05 0.17015 -0.908318 0.281967 
4 17.1478 3.05952 6.15687 0.0740102 0.506435 -0.0697863 -0.498166 0.779463 0.53388 
121 17.9217 1.88749 6.05147 -0.0434787 -0.0846703 0.0663989 -0.458619 -0.814537 0.735765 
90 11.532 0.468686 5.89206 0.00903565 0.142309 -0.0446725 0.824952 -1.69203 -0.957691 
107 15.8345 0.63563 6.00463 0.00166154 0.00370852 0.0494133 -0.68343 -0.754149 -1.64792 
84 7.18745 0.218746 5.98353 0.1676 0.249351 0.0621956 0.295584 -0.721835 -0.645367 
88 10.7089 1.61253 6.01281 0.0479363 -0.189216 0.118421 0.118078 -0.26327 0.870647 
94 4.90868 3.7052 6.09765 0 0 0 0 0 0 
111 4.90868 6.16519 6.09765 0 0 0 0 0 0 
82 4.90868 1.2452 6.09765 0 0 0 0 0 0 
85 8.55724 0.32216 6.15901 -0.148823 0.00527703 -0.0535796 -0.851426 0.0101264 0.770029 
83 6.34355 1.36241 6.06217 0.175298 -0.327514 0.0651747 0.929645 -0.122975 0.441007 
89 12.8898 0.527781 6.1146 -0.181104 -0.240155 0.0346905 -0.097195 -0.900154 0.722023 
118 11.373 5.26199 6.11425 -0.262044 -0.246612 0.139027 -1.49328 0.357565 0.120352 
119 13.5376 4.14007 6.11278 0.276867 -0.0158001 -0.0173903 -0.870607 -0.253674 0.875517 
98 9.30707 1.5152 6.08121 0.0402024 0.286377 0.0731156 0.76047 -0.259531 1.3086 
106 13.6271 1.72201 6.09201 -0.0571224 0.316057 -0.0104143 -0.961883 -0.0740568 -0.617747 
102 12.8527 2.90841 6.0915 -0.149646 -0.0400036 0.0597291 -0.076058 -0.170568 0.667345 
127 7.05364 7.47891 6.07007 -0.131934 0.20962 0.146884 0.047691 -0.0323941 -0.616765 
128 8.47415 7.55832 6.11394 -0.0883666 0.337299 0.00450973 0.352397 -1.69264 -0.004149 
9 14.9256 6.6212 6.14078 -0.0497214 -0.572234 0.024527 0.292456 -1.48458 1.73174 
10 17.0775 5.48015 6.17538 0.409307 -0.121105 0.0564128 -0.229012 0.357185 1.10168 
97 8.52769 2.70602 6.11614 0.0872248 -0.20038 -0.110326 0.479944 1.90719 0.000139694 
129 9.20594 6.35753 6.13599 0.0912379 0.0943407 -0.0797467 0.696333 0.60739 -1.20724 
101 10.6655 4.03221 6.10587 -0.26224 0.0740826 0.0413603 0.41477 1.34244 -0.018071 
1 10.6247 6.45108 6.14435 0.18082 -0.0557737 -0.102564 0.292573 -0.952318 -0.09207 
13 13.5088 6.54818 6.14338 -0.145987 0.198683 0.0119441 -0.308502 -0.591936 0.401977 
103 15.0196 1.78178 6.08059 0.241477 0.138644 0.035603 -0.930629 -0.698098 0.506979 
11 19.2506 4.34787 6.24823 -0.176705 -0.0595787 0.0713656 -0.461241 -0.164653 -0.433052 
105 11.4183 2.84535 6.08394 0.0392925 -0.211962 -0.148365 0.342182 0.301235 -0.544619 
14 15.6692 5.42105 6.16691 -0.488396 0.160715 -0.159347 0.123245 -1.04128 0.183009 
15 17.8327 4.29182 6.20914 -0.0297924 0.0598378 0.0134081 -1.74691 0.492381 -0.645946 
3 14.9619 4.19645 6.10981 0.0257296 0.347678 0.293291 -0.249385 0.225582 -1.47964 
113 7.06875 5.03507 6.08464 -0.368599 0.184231 0.0136311 -0.185344 -0.460378 0.131577 
114 8.48783 5.12909 6.11202 0.150086 0.136077 0.0274999 0.0646547 -0.993752 -0.293706 
24 19.1888 6.75555 6.23271 0.339903 0.260183 -0.0807695 -0.902738 -0.0858393 -1.24469 
115 9.23547 3.93901 6.11891 0.232165 -0.0941039 -0.0322965 0.225161 -0.208077 -0.410126 
120 15.7209 3.01583 6.16401 -0.184716 -0.378016 -0.190665 0.000129877 -0.833756 0.804337 
28 17.7821 6.70117 6.18327 -0.179012 -0.0509807 -0.0312677 0.432577 -1.63068 1.04908 
2 12.7861 5.33047 6.12989 0.513798 -0.00540169 -0.074666 -0.421509 -0.523681 -1.14807 
126 6.32385 8.69574 6.07476 0.367925 -0.0833422 0.0350931 -0.205282 -1.04415 -0.55641 
319 8.44298 24.7135 6.1632 0.0261264 -0.702318 -0.138464 0.0703843 0.846211 -0.649271 
20 10.5907 11.3079 6.11188 0.229656 0.0100948 -0.0242705 0.289562 -0.435606 -0.592487 
200 17.6967 13.9693 6.12742 -0.196611 -0.259086 0.0414301 1.31068 0.503572 1.07949 
40 11.3043 12.5436 6.07301 0.174137 -0.562909 0.0559415 -0.512748 0.235588 0.0122831 
51 6.32029 16.0605 6.10226 0.182117 -0.0338669 -0.0687706 0.325685 -0.994091 1.00984 
54 14.8435 13.8857 6.10092 0.105182 0.300815 -0.00544735 0.250815 0.756094 -1.64606 
55 16.9884 12.7433 6.13184 0.0581684 0.0387367 -0.0230018 0.403287 0.216617 -0.0157435 
143 8.45454 14.8959 6.10231 -0.258998 0.0741442 -0.131876 -1.38719 -0.413618 0.660669 
142 7.03531 14.8413 6.09034 0.149592 0.0869236 0.0842032 -0.817566 -0.00792082 -0.175822 
137 4.90868 13.5452 6.09765 0 0 0 0 0 0 
132 4.90868 11.0852 6.09765 0 0 0 0 0 0 
125 4.90868 8.62519 6.09765 0 0 0 0 0 0 
50 4.90868 16.0052 6.09765 0 0 0 0 0 0 
198 13.4202 16.2668 6.09866 0.0280171 0.165248 -0.116162 -0.36605 0.0160898 0.617409 
64 4.90868 18.4652 6.09765 0 0 0 0 0 0 
295 9.15037 21.0276 6.13651 -0.0655213 -0.0308657 0.00275048 0.714135 -1.35939 -1.00242 
293 7.03472 22.2073 6.13474 -0.442733 -0.365188 -0.018439 -0.965045 -0.552266 -0.776707 
291 4.90868 23.3852 6.09765 0 0 0 0 0 0 
205 4.90868 20.9252 6.09765 0 0 0 0 0 0 
67 8.44196 17.35 6.08433 0.214876 -0.1782 0.0731091 0.150558 -0.183474 1.0794 
193 12.6985 17.4805 6.07885 -0.0334457 -0.207006 0.0454462 -0.292741 0.0858559 0.536296 
197 11.282 17.4232 6.08747 0.213635 -0.192596 -0.00772616 -0.763913 -0.081748 0.22345 
207 7.02916 19.7512 6.12422 -0.0604836 -0.378676 0.0042136 0.207191 0.743723 0.21332 
65 6.31876 18.5182 6.10014 0.0610086 -0.075495 0.0680026 -1.07419 0.232699 -0.800956 
7 10.6065 8.87248 6.12605 0.292564 0.0401754 0.0711173 0.489024 -0.631565 0.590734 
283 14.8229 18.7593 6.07561 -0.164218 0.0583753 -0.00792412 -1.17534 1.08497 0.320774 
284 16.9594 17.598 6.0633 -0.204165 -0.0384032 0.0283954 -1.26811 -0.278892 -0.313482 
292 6.3227 23.427 6.12737 0.0550134 0.233528 -0.0457201 0.0483306 1.73958 -2.4482 
294 8.44391 22.2477 6.1397 0.10971 0.125191 -0.0026951 -0.328528 0.236025 -1.14801 
301 14.8199 21.1868 6.11434 -0.133048 0.163328 -0.0478061 -1.41806 0.330501 -0.189064 
342 19.7851 22.5165 6.11787 0.209291 -0.25924 -0.0649798 -0.69927 -0.102691 0.845297 
303 19.0821 18.8598 6.06456 0.122215 -0.157327 -0.0193586 -0.283854 -1.63915 -1.61882 
324 19.7964 20.0756 6.06262 -0.00750213 0.31387 0.0817214 0.611155 0.426283 0.935418 
282 12.6989 19.9217 6.10985 -0.4423 -0.380753 -0.0128204 0.840985 1.03198 -1.25012 
304 15.5371 19.9792 6.08143 0.14432 0.0380271 -0.0137438 0.0148805 -0.689322 0.0976969 
305 17.666 18.8195 6.06061 0.400305 -0.0242922 -0.0366594 0.921831 0.0357831 -0.0821727 
309 10.567 23.5227 6.14428 -0.133633 0.643023 0.0380385 0.416191 -0.155688 0.816343 
310 12.6916 22.3548 6.1144 -0.0594842 0.153149 0.0540435 -1.6911 0.603276 0.583253 
312 13.4055 21.1401 6.12339 0.186982 0.305628 -0.105967 1.16464 0.50792 -1.963 
318 7.02792 24.6684 6.12957 -0.0464466 -0.189986 0.04522 -0.457867 0.690194 0.144965 
285 19.1005 16.4374 6.09403 -0.0942184 -0.225853 0.0149318 -2.50413 -0.708318 -1.25225 
320 9.15212 23.4809 6.13651 -0.106514 0.355206 0.118253 0.138697 0.254927 -1.01079 
321 16.9413 22.4538 6.12277 -0.10338 0.290712 0.0305038 -0.420631 -0.830927 -0.0620883 
322 19.0819 21.2863 6.10065 -0.166816 0.213639 -0.0637799 -0.0541557 0.238279 -0.641066 
323 17.667 21.2536 6.09676 -0.0833029 -0.433672 0.0362711 -1.10453 -0.195265 -0.918019 
329 14.8174 23.622 6.1031 -0.299144 0.141489 0.0974178 0.331303 -0.35223 -0.578403 
331 13.4015 23.5851 6.12164 0.118179 -0.166328 -0.00104274 -1.48975 1.44532 0.77099 
332 15.5265 22.412 6.12778 0.298992 -0.157248 -0.070566 0.42733 0.404301 0.200996 
341 19.0588 23.7221 6.11855 0.203423 0.240952 0.0526108 -0.940683 -0.521826 -0.574994 
348 16.9295 24.8977 6.14597 0.289391 -0.0904382 -0.14435 0.0923666 1.84611 0.738546 
351 15.5214 24.8484 6.10361 0.0326918 0.179661 0.131754 0.953348 0.00350002 1.17346 
352 17.6443 23.6826 6.1327 0.172739 0.0733914 0.0311246 0.254857 -0.658541 -1.17253 
361 19.7786 24.9469 6.11602 -0.217894 -0.0963124 -0.0760981 -1.10666 0.0776075 -0.498989 
206 6.32293 20.9634 6.13295 -0.0374442 0.730744 -0.0592324 -0.527097 0.80184 -0.537599 
328 12.6963 24.8028 6.15481 -0.421564 -0.179979 -0.0289945 0.720281 -0.413882 2.19394 
330 11.2798 24.7591 6.15947 -0.101029 -0.141735 -0.0118182 -0.00649469 0.0398965 -0.550875 
288 15.5409 17.5572 6.06911 0.263886 -0.669453 0.00824225 0.226367 0.581401 0.22656 
287 13.4084 18.7053 6.0809 0.220454 0.118661 0.0369952 -0.904215 0.511838 0.7002 
286 11.2815 19.8677 6.11479 0.112734 -0.0945678 0.0689227 0.76298 0.370965 -0.666698 
281 10.5625 21.08 6.13313 0.257177 0.216624 -0.0115138 -0.356343 0.686742 -0.568564 
209 9.15277 18.5862 6.10452 0.100877 -0.354685 0.0179737 -0.32792 0.116936 1.59388 
208 8.43774 19.7951 6.13035 0.168972 0.31459 -0.0677478 -0.632516 -0.18873 -0.184316 
302 16.9529 20.0293 6.07255 -0.184784 0.100232 0.0448019 1.60183 1.01447 0.418886 
66 7.02591 17.2965 6.09095 0.13607 0.0249052 0.0313897 0.250394 0.163524 -0.563369 
311 11.2761 22.3165 6.12973 0.0878275 -0.709995 -0.011579 0.718753 1.32822 -0.352724 
192 10.5692 18.6369 6.10979 -0.176863 0.0697994 -0.0599742 0.546656 0.1137 -1.02489 
37 14.8597 11.4565 6.11052 0.236645 0.358257 0.0358563 -0.609253 -0.594455 -0.767625 
36 12.7263 12.6002 6.07912 -0.308567 0.204858 -0.0370362 -0.0216891 0.692574 0.49303 
35 10.5804 13.7452 6.06385 0.144634 0.337938 0.0633721 -1.35844 0.815612 -1.26005 
25 11.3203 10.0982 6.13223 0.161663 0.3142 -0.0689953 -0.999594 0.163174 -0.372883 
21 12.7429 10.1784 6.12199 -0.308586 -0.733278 -0.0148964 -0.939617 1.24355 0.187369 
141 9.1768 11.2407 6.12106 -0.15927 -0.0775107 -0.13473 -0.515592 0.105829 -0.606749 
199 15.5494 15.1173 6.11032 0.384391 -0.342767 -0.0837603 -0.511846 0.0926227 0.0530158 
136 9.19363 8.79551 6.12196 -0.265417 -0.188241 0.00298279 -0.719014 -0.956002 0.808805 
133 6.33085 11.146 6.07057 -0.199668 0.23631 0.115001 1.18401 -0.605182 1.09318 
134 7.04589 9.93121 6.0877 -0.00390974 -0.132388 -0.0542858 0.266392 0.763096 0.904701 
135 8.46362 10.0014 6.10677 -0.0040423 0.256138 0.0253391 -0.25596 -0.702624 1.13522 
41 13.4498 11.3936 6.09026 0.0758104 0.399584 0.0865821 -2.35121 0.213344 -0.638224 
57 11.2956 14.9781 6.07193 0.239343 -0.322692 0.0921264 -0.00314294 0.914154 -0.315298 
139 7.04284 12.3883 6.08142 -0.105875 -0.0480828 -0.00627072 -0.153914 0.627072 0.195271 
140 8.45805 12.4572 6.07889 -0.0621758 -0.402401 0.0759823 -0.552856 -0.212212 -1.53803 
144 9.1688 13.6829 6.08084 0.0234288 0.162193 0.00856102 0.580614 0.526922 0.852538 
289 17.6859 16.3905 6.08879 -0.219046 -0.0105456 -0.0182023 0.225934 1.12863 0.392517 
27 15.6284 7.83728 6.12772 0.294999 0.33933 0.0978927 -1.21265 -0.947775 1.00155 
23 17.0454 7.8954 6.14031 -0.145404 0.0762573 0.0148961 -1.04686 -0.995413 -0.79032 
12 11.3448 7.67487 6.12935 0.18673 -0.0441815 0.0781122 -0.114489 -0.303599 1.02643 
8 12.7737 7.75026 6.14747 -0.59906 -0.288936 -0.0682439 0.0475492 0.779727 -0.678913 
22 14.8961 9.03946 6.14147 -0.18992 -0.342043 -0.0474923 0.551839 -0.776575 1.24064 
26 13.4804 8.96937 6.12653 -0.120421 0.570022 0.0898005 -0.531798 -0.547683 -0.553442 
38 17.0106 10.3216 6.13109 0.0746311 -0.0286377 0.0640957 -0.339983 -1.405 -0.477872 
39 19.1606 9.17791 6.15796 -0.220831 -0.280091 -0.0418113 -0.539268 0.305758 0.623511 
196 19.1081 14.0092 6.16549 0.238458 0.23647 -0.128888 0.123206 0.239945 1.12949 
42 15.5938 10.2619 6.13485 0.311872 0.0192493 -0.0403696 -0.480522 1.36879 0.661235 
43 17.7462 9.12019 6.14054 -0.0525876 0.127339 -0.048845 2.3507 0.260499 -1.00281 
195 16.9666 15.1699 6.09864 0.109485 0.113709 0.0971917 0.374066 -0.401573 -0.255117 
52 10.5807 16.1844 6.08706 -0.262472 0.398424 -0.0320062 -1.25136 -0.083363 0.949762 
53 12.7157 15.0379 6.09294 -0.528559 0.11626 -0.0758306 0.813025 -0.138462 0.178892 
194 14.8346 16.3212 6.08974 -0.146807 0.475387 -0.00230885 -0.206567 0.971803 -1.03286 
138 6.32722 13.6081 6.08521 -0.163651 -0.265573 0.060095 -0.384419 0.6597 0.8333 
56 19.1392 11.5918 6.15149 -0.271236 -0.0740997 -0.0323966 -0.354515 -0.375631 0.546784 
58 13.4308 13.8326 6.088 0.152611 -0.340645 0.0575404 -1.10225 0.376421 0.543722 
59 15.5722 12.6853 6.11683 0.00131912 -0.252805 -0.0399572 0.0126409 1.04561 0.544021 
60 17.725 11.5433 6.12957 -0.196671 -0.0997915 0.0484585 -0.155735 -0.128653 0.226703 
68 9.1635 16.1278 6.09797 -0.110078 0.353492 -0.0911629 0.0517145 0.563523 -0.954112 
210 10.5606 30.8706 6.14337 0.346204 0.0507478 0.0690226 0.734616 -1.19381 -0.0696064 
381 9.15032 33.2904 6.16375 -0.0530629 -0.165495 -0.00261818 1.66126 0.342273 0.31329 
216 10.5663 33.321 6.17309 -0.0505222 0.129176 -0.0513327 -0.988537 1.23494 -0.717994 
217 12.69 32.1345 6.16971 -0.13258 -0.00443306 -0.0420438 -1.13604 1.2492 -0.937894 
374 9.15179 30.8323 6.1532 -0.0843948 0.333279 -0.0339946 -1.94747 0.548763 0.787171 
221 11.277 32.1014 6.16045 -0.133296 -0.199726 0.011424 -0.199488 -0.180086 -0.185207 
251 15.5258 34.6226 6.16512 -0.0188158 -0.255021 0.074606 -0.430172 -1.34012 -0.566787 
218 14.8069 30.9457 6.17315 0.260167 0.0860915 -0.0168933 -0.940167 0.488528 0.528329 
260 6.32386 40.6217 6.10081 0.0871437 0.0677045 0.0204917 0.359029 0.104554 -0.0981288 
261 10.5636 40.6841 6.12664 0.0107207 -0.0385139 -0.0371041 -0.00209609 0.523213 0.446991 
222 13.3981 30.9201 6.16847 -0.141516 -0.297571 -0.0639977 0.0868965 1.08585 1.2512 
276 8.44002 41.8836 6.11288 -0.223582 -0.142403 -0.0698626 0.148323 -0.295295 -1.20156 
386 9.14439 35.7379 6.16308 0.275516 0.32412 -0.0832804 -2.14389 -0.0600734 0.3574 
234 11.2787 34.5504 6.16942 0.0749815 -0.248213 0.034093 -0.0192545 0.758449 0.760486 
230 12.6983 34.5767 6.16103 -0.42001 0.0175674 -0.0290854 1.17048 -1.14749 -1.12219 
214 19.0582 26.1596 6.10737 0.24945 0.0614004 0.141723 0.454067 0.348109 -0.962014 
366 17.644 26.123 6.12898 0.159602 -0.405783 0.0476863 0.205193 0.690639 -1.4224 
229 10.5656 35.766 6.17126 -0.133785 0.285984 -0.0203288 -0.416339 1.13813 -0.198884 
364 13.3921 28.4716 6.14581 0.255623 0.352201 0.111673 1.41193 0.583939 0.200699 
232 16.9362 32.2033 6.18555 -0.0159226 0.457309 0.0727256 -1.30974 -0.23063 0.00445889 
384 7.03483 36.9443 6.13336 -0.0210426 0.132835 -0.0346142 2.08382 0.822184 0.61447 
383 6.32666 38.1666 6.12158 -0.118813 0.0824295 -0.0367425 0.338293 -0.252693 1.17347 
378 6.32534 35.7197 6.13136 -0.220805 -0.338907 -0.0286089 -1.10164 -0.20572 -0.321604 
235 13.3989 33.3558 6.15449 0.283486 0.138025 0.0715161 -0.768056 0.921192 -0.654777 
253 19.7828 32.2494 6.16804 0.178466 -0.173226 -0.0477878 -0.478182 -1.23798 0.290515 
225 19.7836 27.3787 6.13532 -0.226155 -0.00139488 -0.064616 -0.743371 -0.530997 0.603037 
231 14.8148 33.3887 6.16925 -0.0898708 0.413902 0.0325133 -0.736996 -0.992179 -0.116093 
236 15.5205 32.1733 6.18739 0.197096 -0.262442 -0.0804653 0.599463 0.269419 -0.599698 
371 6.32178 33.2542 6.15039 0.00817241 -0.154021 -0.142251 0.347165 -0.980737 -1.78167 
789 15.5159 39.5018 6.18115 0.0840498 -0.0998623 -0.0731496 -1.22001 0.244559 1.05069 
785 16.9279 39.5368 6.17231 0.221456 -0.251319 -0.106852 1.8553 0.491384 0.566509 
782 10.5614 43.1356 6.11766 -0.0930489 -0.075043 0.0457662 -0.810988 -0.897439 -0.416025 
263 14.8147 38.2752 6.14894 -0.321074 0.304289 0.101487 -0.124103 -0.129684 0.967839 
799 9.14495 43.1085 6.11693 0.120848 0.285612 -0.0367748 -0.238517 -0.218027 0.783673 
250 13.4033 35.8017 6.15889 -0.0942244 0.235584 0.081437 1.03958 1.12144 -0.0882198 
245 12.6894 37.0208 6.15188 -0.00737315 0.047287 0.0514003 1.33686 0.470922 0.371322 
380 8.4364 34.5088 6.16706 -0.0651953 0.121983 -0.0433089 -0.320638 0.347337 1.6121 
274 6.31518 43.0859 6.10909 0.295526 -0.167518 -0.101736 -1.68148 0.655449 -1.22906 
379 7.01906 34.4867 6.15184 0.368536 0.174059 0.0406476 0.893416 -0.554553 0.401823 
264 16.9438 37.0998 6.1489 -0.252109 -0.369042 0.0017464 -0.260573 -0.624736 -0.657647 
268 15.5252 37.0659 6.16165 0.306881 -0.236274 0.0225545 -0.688701 0.498022 1.07221 
246 14.8147 35.8424 6.18901 0.0669687 -0.166666 -0.160811 0.53025 0.72545 -0.387083 
791 19.7724 37.1197 6.14752 0.178857 0.210611 -0.0679143 0.553862 0.443294 -0.503648 
252 17.6487 33.434 6.18686 0.0681569 -0.27934 -0.0556172 -0.327403 -1.08635 0.137187 
248 19.0625 33.4593 6.17167 0.281647 0.352396 -0.000488183 -0.280903 -0.122531 0.00760666 
372 7.03597 32.0312 6.13911 -0.583619 -0.250803 -0.000842208 1.23756 0.153854 0.979018 
357 6.32396 30.7915 6.11339 0.276932 0.273688 0.0334487 -0.882533 2.01332 -1.19721 
786 19.0636 38.3431 6.11846 -0.10945 -0.286773 0.147192 0.0878897 0.476099 0.122243 
880 19.7714 39.5633 6.12489 0.517956 -0.235363 -0.0146181 0.70132 0.53073 0.826625 
896 19.7713 41.9879 6.18393 0.0839027 0.468349 -0.232738 -0.776841 1.34046 -0.705472 
270 19.7859 34.6842 6.15186 -0.28648 -0.290029 0.0640993 -0.433252 -1.38067 0.386899 
247 16.9429 34.6505 6.16808 -0.373371 0.0316891 0.0189563 -1.20738 -0.149648 -0.820087 
879 17.6467 40.7511 6.16674 -0.00192835 0.27594 -0.0358105 0.954318 -1.02861 -0.630626 
373 8.44266 32.0564 6.14915 0.383776 0.103417 0.014363 -1.47483 -0.324457 -0.803028 
358 7.04022 29.5664 6.112 -0.322994 0.369148 0.122427 -0.485652 0.109269 0.0259561 
875 19.06 40.7742 6.13711 -0.177481 0.0144043 0.109472 0.431095 0.261039 1.39067 
275 7.02229 41.8606 6.09742 0.114924 -0.0951865 0.0952742 0.289138 -0.0591956 0.0749756 
790 17.6488 38.3227 6.14427 0.00475696 -0.0298424 0.0373135 0.181204 0.0378545 -0.976462 
788 13.3906 40.7071 6.17469 -0.033768 -0.221348 0.0371024 -0.542583 1.27122 0.0728795 
787 11.2734 41.9161 6.12773 -0.166651 -0.289204 0.0526532 -0.312854 -0.57531 0.165582 
269 17.6482 35.8729 6.15266 0.310795 0.247146 0.0436999 0.869287 0.0515447 -1.00373 
784 14.805 40.7138 6.20565 -0.0106166 0.371147 -0.154094 0.587864 -0.0106766 -1.29196 
783 12.686 41.9349 6.17241 0.0377552 -0.370556 -0.13935 0.0245379 -1.97635 0.388005 
265 19.0675 35.897 6.14782 -0.257255 -0.0274798 -0.016744 0.136289 -0.635718 0.556105 
267 13.3972 38.2492 6.14145 0.0547847 0.0637234 0.0862225 -0.233248 -0.172113 0.443345 
259 4.90868 40.6052 6.09765 0 0 0 0 0 0 
370 4.90868 33.2252 6.09765 0 0 0 0 0 0 
213 16.9333 27.3305 6.13842 0.0723163 0.454007 -0.0529384 0.147297 -0.31013 -0.136754 
356 4.90868 30.7652 6.09765 0 0 0 0 0 0 
336 4.90868 28.3052 6.09765 0 0 0 0 0 0 
316 4.90868 25.8452 6.09765 0 0 0 0 0 0 
273 4.90868 43.0652 6.09765 0 0 0 0 0 0 
377 4.90868 35.6852 6.09765 0 0 0 0 0 0 
382 4.90868 38.1452 6.09765 0 0 0 0 0 0 
337 6.32154 28.3448 6.13995 -0.0409749 -0.168686 -0.161093 0.38808 -0.624028 0.0671828 
878 15.5224 41.9342 6.19248 -0.115792 0.412096 0.0331197 -0.179637 0.467727 1.26186 
877 13.4015 43.1521 6.15238 -0.0489489 0.075164 0.0531733 0.694478 -0.987547 0.660629 
874 16.9351 41.972 6.1843 0.0897514 -0.204437 0.0158827 -1.13702 -0.307865 0.663481 
365 15.5219 27.2951 6.13012 -0.118446 -0.180827 0.108466 -0.554745 -0.727764 2.26783 
262 12.684 39.4722 6.15441 0.138688 0.165319 -0.0517792 1.46302 -1.59635 1.58435 
359 8.45105 29.6072 6.15417 -0.150843 -0.333762 -0.0687964 0.109492 0.256354 0.469332 
219 16.9293 29.767 6.15224 0.394406 0.144029 0.0167902 0.510186 -0.534188 -0.141596 
244 10.561 38.2204 6.15211 0.230254 0.2438 -0.0595872 0.649546 -0.431546 0.108217 
363 11.2743 29.6481 6.15224 -0.149416 0.248509 -0.00794566 1.63654 -0.903203 -0.268128 
223 15.5183 29.7251 6.14792 -0.0545928 0.46101 0.119395 -0.101364 -0.926063 -0.850057 