ITEM: TIMESTEP
300
ITEM: NUMBER OF ATOMS
4798
ITEM: BOX BOUNDS ff ff ff
-10.3577 110.358
-10.0998 131.9
-100.402 112.598
ITEM: ATOMS id x y z fx fy fz vx vy vz 
72 -0.062301 2.4752 6.09765 0 0 0 0 0 0 
110 4.19854 7.39519 6.09765 0 0 0 0 0 0 
109 2.77826 7.39519 6.09765 0 0 0 0 0 0 
93 4.19854 4.9352 6.09765 0 0 0 0 0 0 
92 2.77826 4.9352 6.09765 0 0 0 0 0 0 
91 2.06812 6.16519 6.09765 0 0 0 0 0 0 
87 0.647839 6.16519 6.09765 0 0 0 0 0 0 
86 -0.062301 7.39519 6.09765 0 0 0 0 0 0 
81 4.19854 2.4752 6.09765 0 0 0 0 0 0 
80 2.77826 2.4752 6.09765 0 0 0 0 0 0 
79 2.06812 3.7052 6.09765 0 0 0 0 0 0 
78 0.647839 3.7052 6.09765 0 0 0 0 0 0 
77 -0.062301 4.9352 6.09765 0 0 0 0 0 0 
76 4.19854 0.015197 6.09765 0 0 0 0 0 0 
75 2.77826 0.015197 6.09765 0 0 0 0 0 0 
74 2.06812 1.2452 6.09765 0 0 0 0 0 0 
73 0.647839 1.2452 6.09765 0 0 0 0 0 0 
6 -0.062301 12.3152 6.09765 0 0 0 0 0 0 
131 4.19854 12.3152 6.09765 0 0 0 0 0 0 
130 2.77826 12.3152 6.09765 0 0 0 0 0 0 
124 4.19854 9.85519 6.09765 0 0 0 0 0 0 
123 2.77826 9.85519 6.09765 0 0 0 0 0 0 
122 2.06812 11.0852 6.09765 0 0 0 0 0 0 
117 0.647839 11.0852 6.09765 0 0 0 0 0 0 
108 2.06812 8.62519 6.09765 0 0 0 0 0 0 
100 0.647839 8.62519 6.09765 0 0 0 0 0 0 
99 -0.062301 9.85519 6.09765 0 0 0 0 0 0 
34 4.19854 14.7752 6.09765 0 0 0 0 0 0 
33 2.77826 14.7752 6.09765 0 0 0 0 0 0 
32 2.06812 16.0052 6.09765 0 0 0 0 0 0 
31 0.647839 16.0052 6.09765 0 0 0 0 0 0 
19 2.06812 13.5452 6.09765 0 0 0 0 0 0 
18 0.647839 13.5452 6.09765 0 0 0 0 0 0 
17 -0.062301 14.7752 6.09765 0 0 0 0 0 0 
300 4.19854 24.6152 6.09765 0 0 0 0 0 0 
299 2.77826 24.6152 6.09765 0 0 0 0 0 0 
204 4.19854 22.1552 6.09765 0 0 0 0 0 0 
203 2.77826 22.1552 6.09765 0 0 0 0 0 0 
202 2.06812 23.3852 6.09765 0 0 0 0 0 0 
191 0.647839 23.3852 6.09765 0 0 0 0 0 0 
190 -0.062301 24.6152 6.09765 0 0 0 0 0 0 
71 2.06812 20.9252 6.09765 0 0 0 0 0 0 
70 0.647839 20.9252 6.09765 0 0 0 0 0 0 
69 -0.062301 22.1552 6.09765 0 0 0 0 0 0 
63 4.19854 19.6952 6.09765 0 0 0 0 0 0 
62 2.77826 19.6952 6.09765 0 0 0 0 0 0 
49 4.19854 17.2352 6.09765 0 0 0 0 0 0 
48 2.77826 17.2352 6.09765 0 0 0 0 0 0 
47 2.06812 18.4652 6.09765 0 0 0 0 0 0 
46 0.647839 18.4652 6.09765 0 0 0 0 0 0 
45 -0.062301 19.6952 6.09765 0 0 0 0 0 0 
30 -0.062301 17.2352 6.09765 0 0 0 0 0 0 
355 4.19854 31.9952 6.09765 0 0 0 0 0 0 
354 2.77826 31.9952 6.09765 0 0 0 0 0 0 
353 2.06812 33.2252 6.09765 0 0 0 0 0 0 
344 0.647839 33.2252 6.09765 0 0 0 0 0 0 
335 4.19854 29.5352 6.09765 0 0 0 0 0 0 
334 2.77826 29.5352 6.09765 0 0 0 0 0 0 
333 2.06812 30.7652 6.09765 0 0 0 0 0 0 
326 0.647839 30.7652 6.09765 0 0 0 0 0 0 
325 -0.062301 31.9952 6.09765 0 0 0 0 0 0 
315 4.19854 27.0752 6.09765 0 0 0 0 0 0 
314 2.77826 27.0752 6.09765 0 0 0 0 0 0 
313 2.06812 28.3052 6.09765 0 0 0 0 0 0 
308 0.647839 28.3052 6.09765 0 0 0 0 0 0 
307 -0.062301 29.5352 6.09765 0 0 0 0 0 0 
298 2.06812 25.8452 6.09765 0 0 0 0 0 0 
297 0.647839 25.8452 6.09765 0 0 0 0 0 0 
296 -0.062301 27.0752 6.09765 0 0 0 0 0 0 
215 -0.062301 36.9152 6.09765 0 0 0 0 0 0 
376 4.19854 36.9152 6.09765 0 0 0 0 0 0 
375 2.77826 36.9152 6.09765 0 0 0 0 0 0 
369 4.19854 34.4552 6.09765 0 0 0 0 0 0 
368 2.77826 34.4552 6.09765 0 0 0 0 0 0 
367 2.06812 35.6852 6.09765 0 0 0 0 0 0 
362 0.647839 35.6852 6.09765 0 0 0 0 0 0 
343 -0.062301 34.4552 6.09765 0 0 0 0 0 0 
258 4.19854 41.8352 6.09765 0 0 0 0 0 0 
257 2.77826 41.8352 6.09765 0 0 0 0 0 0 
256 2.06812 43.0652 6.09765 0 0 0 0 0 0 
255 0.647839 43.0652 6.09765 0 0 0 0 0 0 
243 4.19854 39.3752 6.09765 0 0 0 0 0 0 
242 2.77826 39.3752 6.09765 0 0 0 0 0 0 
241 2.06812 40.6052 6.09765 0 0 0 0 0 0 
240 0.647839 40.6052 6.09765 0 0 0 0 0 0 
239 -0.062301 41.8352 6.09765 0 0 0 0 0 0 
228 2.06812 38.1452 6.09765 0 0 0 0 0 0 
227 0.647839 38.1452 6.09765 0 0 0 0 0 0 
226 -0.062301 39.3752 6.09765 0 0 0 0 0 0 
254 -0.062301 44.2952 6.09765 0 0 0 0 0 0 
905 4.19854 51.6752 6.09765 0 0 0 0 0 0 
904 2.77826 51.6752 6.09765 0 0 0 0 0 0 
890 4.19854 49.2152 6.09765 0 0 0 0 0 0 
889 2.77826 49.2152 6.09765 0 0 0 0 0 0 
888 2.06812 50.4452 6.09765 0 0 0 0 0 0 
887 0.647839 50.4452 6.09765 0 0 0 0 0 0 
886 -0.062301 51.6752 6.09765 0 0 0 0 0 0 
794 4.19854 46.7552 6.09765 0 0 0 0 0 0 
793 2.77826 46.7552 6.09765 0 0 0 0 0 0 
792 2.06812 47.9852 6.09765 0 0 0 0 0 0 
781 0.647839 47.9852 6.09765 0 0 0 0 0 0 
780 -0.062301 49.2152 6.09765 0 0 0 0 0 0 
280 2.06812 45.5252 6.09765 0 0 0 0 0 0 
279 0.647839 45.5252 6.09765 0 0 0 0 0 0 
278 -0.062301 46.7552 6.09765 0 0 0 0 0 0 
272 4.19854 44.2952 6.09765 0 0 0 0 0 0 
271 2.77826 44.2952 6.09765 0 0 0 0 0 0 
959 4.19854 59.0552 6.09765 0 0 0 0 0 0 
958 2.77826 59.0552 6.09765 0 0 0 0 0 0 
957 2.06812 60.2852 6.09765 0 0 0 0 0 0 
952 0.647839 60.2852 6.09765 0 0 0 0 0 0 
945 4.19854 56.5952 6.09765 0 0 0 0 0 0 
944 2.77826 56.5952 6.09765 0 0 0 0 0 0 
943 2.06812 57.8252 6.09765 0 0 0 0 0 0 
934 0.647839 57.8252 6.09765 0 0 0 0 0 0 
933 -0.062301 59.0552 6.09765 0 0 0 0 0 0 
925 4.19854 54.1352 6.09765 0 0 0 0 0 0 
924 2.77826 54.1352 6.09765 0 0 0 0 0 0 
923 2.06812 55.3652 6.09765 0 0 0 0 0 0 
916 0.647839 55.3652 6.09765 0 0 0 0 0 0 
915 -0.062301 56.5952 6.09765 0 0 0 0 0 0 
903 2.06812 52.9052 6.09765 0 0 0 0 0 0 
898 0.647839 52.9052 6.09765 0 0 0 0 0 0 
897 -0.062301 54.1352 6.09765 0 0 0 0 0 0 
805 -0.062301 61.5152 6.09765 0 0 0 0 0 0 
966 4.19854 61.5152 6.09765 0 0 0 0 0 0 
965 2.77826 61.5152 6.09765 0 0 0 0 0 0 
862 4.19854 68.8952 6.09765 0 0 0 0 0 0 
861 2.77826 68.8952 6.09765 0 0 0 0 0 0 
848 4.19854 66.4352 6.09765 0 0 0 0 0 0 
847 2.77826 66.4352 6.09765 0 0 0 0 0 0 
846 2.06812 67.6652 6.09765 0 0 0 0 0 0 
845 0.647839 67.6652 6.09765 0 0 0 0 0 0 
844 -0.062301 68.8952 6.09765 0 0 0 0 0 0 
833 4.19854 63.9752 6.09765 0 0 0 0 0 0 
832 2.77826 63.9752 6.09765 0 0 0 0 0 0 
831 2.06812 65.2052 6.09765 0 0 0 0 0 0 
830 0.647839 65.2052 6.09765 0 0 0 0 0 0 
829 -0.062301 66.4352 6.09765 0 0 0 0 0 0 
818 2.06812 62.7452 6.09765 0 0 0 0 0 0 
817 0.647839 62.7452 6.09765 0 0 0 0 0 0 
816 -0.062301 63.9752 6.09765 0 0 0 0 0 0 
1828 4.19854 76.2752 6.09765 0 0 0 0 0 0 
1827 2.77826 76.2752 6.09765 0 0 0 0 0 0 
1826 2.06812 77.5052 6.09765 0 0 0 0 0 0 
1821 0.647839 77.5052 6.09765 0 0 0 0 0 0 
1813 4.19854 73.8152 6.09765 0 0 0 0 0 0 
1812 2.77826 73.8152 6.09765 0 0 0 0 0 0 
1811 2.06812 75.0452 6.09765 0 0 0 0 0 0 
1810 0.647839 75.0452 6.09765 0 0 0 0 0 0 
1809 -0.062301 76.2752 6.09765 0 0 0 0 0 0 
1717 4.19854 71.3552 6.09765 0 0 0 0 0 0 
1716 2.77826 71.3552 6.09765 0 0 0 0 0 0 
1715 2.06812 72.5852 6.09765 0 0 0 0 0 0 
1704 0.647839 72.5852 6.09765 0 0 0 0 0 0 
1703 -0.062301 73.8152 6.09765 0 0 0 0 0 0 
870 2.06812 70.1252 6.09765 0 0 0 0 0 0 
869 0.647839 70.1252 6.09765 0 0 0 0 0 0 
868 -0.062301 71.3552 6.09765 0 0 0 0 0 0 
1728 -0.062301 86.1152 6.09765 0 0 0 0 0 0 
1889 4.19854 86.1152 6.09765 0 0 0 0 0 0 
1888 2.77826 86.1152 6.09765 0 0 0 0 0 0 
1882 4.19854 83.6552 6.09765 0 0 0 0 0 0 
1881 2.77826 83.6552 6.09765 0 0 0 0 0 0 
1880 2.06812 84.8852 6.09765 0 0 0 0 0 0 
1875 0.647839 84.8852 6.09765 0 0 0 0 0 0 
1868 4.19854 81.1952 6.09765 0 0 0 0 0 0 
1867 2.77826 81.1952 6.09765 0 0 0 0 0 0 
1866 2.06812 82.4252 6.09765 0 0 0 0 0 0 
1857 0.647839 82.4252 6.09765 0 0 0 0 0 0 
1856 -0.062301 83.6552 6.09765 0 0 0 0 0 0 
1848 4.19854 78.7352 6.09765 0 0 0 0 0 0 
1847 2.77826 78.7352 6.09765 0 0 0 0 0 0 
1846 2.06812 79.9652 6.09765 0 0 0 0 0 0 
1839 0.647839 79.9652 6.09765 0 0 0 0 0 0 
1838 -0.062301 81.1952 6.09765 0 0 0 0 0 0 
1820 -0.062301 78.7352 6.09765 0 0 0 0 0 0 
1741 2.06812 87.3452 6.09765 0 0 0 0 0 0 
1740 0.647839 87.3452 6.09765 0 0 0 0 0 0 
2677 4.19854 95.9552 6.09765 0 0 0 0 0 0 
2676 2.77826 95.9552 6.09765 0 0 0 0 0 0 
1793 2.06812 94.7252 6.09765 0 0 0 0 0 0 
1792 0.647839 94.7252 6.09765 0 0 0 0 0 0 
1791 -0.062301 95.9552 6.09765 0 0 0 0 0 0 
1785 4.19854 93.4952 6.09765 0 0 0 0 0 0 
1784 2.77826 93.4952 6.09765 0 0 0 0 0 0 
1771 4.19854 91.0352 6.09765 0 0 0 0 0 0 
1770 2.77826 91.0352 6.09765 0 0 0 0 0 0 
1769 2.06812 92.2652 6.09765 0 0 0 0 0 0 
1768 0.647839 92.2652 6.09765 0 0 0 0 0 0 
1767 -0.062301 93.4952 6.09765 0 0 0 0 0 0 
1756 4.19854 88.5752 6.09765 0 0 0 0 0 0 
1755 2.77826 88.5752 6.09765 0 0 0 0 0 0 
1754 2.06812 89.8052 6.09765 0 0 0 0 0 0 
1753 0.647839 89.8052 6.09765 0 0 0 0 0 0 
1752 -0.062301 91.0352 6.09765 0 0 0 0 0 0 
1739 -0.062301 88.5752 6.09765 0 0 0 0 0 0 
2663 -0.062301 98.4152 6.09765 0 0 0 0 0 0 
2808 4.19854 103.335 6.09765 0 0 0 0 0 0 
2807 2.77826 103.335 6.09765 0 0 0 0 0 0 
2806 2.06812 104.565 6.09765 0 0 0 0 0 0 
2799 0.647839 104.565 6.09765 0 0 0 0 0 0 
2788 4.19854 100.875 6.09765 0 0 0 0 0 0 
2787 2.77826 100.875 6.09765 0 0 0 0 0 0 
2786 2.06812 102.105 6.09765 0 0 0 0 0 0 
2781 0.647839 102.105 6.09765 0 0 0 0 0 0 
2780 -0.062301 103.335 6.09765 0 0 0 0 0 0 
2773 4.19854 98.4152 6.09765 0 0 0 0 0 0 
2772 2.77826 98.4152 6.09765 0 0 0 0 0 0 
2771 2.06812 99.6452 6.09765 0 0 0 0 0 0 
2770 0.647839 99.6452 6.09765 0 0 0 0 0 0 
2769 -0.062301 100.875 6.09765 0 0 0 0 0 0 
2675 2.06812 97.1852 6.09765 0 0 0 0 0 0 
2664 0.647839 97.1852 6.09765 0 0 0 0 0 0 
2849 4.19854 110.715 6.09765 0 0 0 0 0 0 
2848 2.77826 110.715 6.09765 0 0 0 0 0 0 
2842 4.19854 108.255 6.09765 0 0 0 0 0 0 
2841 2.77826 108.255 6.09765 0 0 0 0 0 0 
2840 2.06812 109.485 6.09765 0 0 0 0 0 0 
2835 0.647839 109.485 6.09765 0 0 0 0 0 0 
2828 4.19854 105.795 6.09765 0 0 0 0 0 0 
2827 2.77826 105.795 6.09765 0 0 0 0 0 0 
2826 2.06812 107.025 6.09765 0 0 0 0 0 0 
2817 0.647839 107.025 6.09765 0 0 0 0 0 0 
2816 -0.062301 108.255 6.09765 0 0 0 0 0 0 
2798 -0.062301 105.795 6.09765 0 0 0 0 0 0 
2716 4.19854 113.175 6.09765 0 0 0 0 0 0 
2715 2.77826 113.175 6.09765 0 0 0 0 0 0 
2701 2.06812 111.945 6.09765 0 0 0 0 0 0 
2700 0.647839 111.945 6.09765 0 0 0 0 0 0 
2699 -0.062301 113.175 6.09765 0 0 0 0 0 0 
2688 -0.062301 110.715 6.09765 0 0 0 0 0 0 
2712 -0.062301 115.635 6.09765 0 0 0 0 0 0 
3636 4.19854 120.555 6.09765 0 0 0 0 0 0 
3635 2.77826 120.555 6.09765 0 0 0 0 0 0 
3634 2.06812 121.785 6.09765 0 0 0 0 0 0 
3623 0.647839 121.785 6.09765 0 0 0 0 0 0 
2753 2.06812 119.325 6.09765 0 0 0 0 0 0 
2752 0.647839 119.325 6.09765 0 0 0 0 0 0 
2751 -0.062301 120.555 6.09765 0 0 0 0 0 0 
2745 4.19854 118.095 6.09765 0 0 0 0 0 0 
2744 2.77826 118.095 6.09765 0 0 0 0 0 0 
2731 4.19854 115.635 6.09765 0 0 0 0 0 0 
2730 2.77826 115.635 6.09765 0 0 0 0 0 0 
2729 2.06812 116.865 6.09765 0 0 0 0 0 0 
2728 0.647839 116.865 6.09765 0 0 0 0 0 0 
2727 -0.062301 118.095 6.09765 0 0 0 0 0 0 
2714 2.06812 114.405 6.09765 0 0 0 0 0 0 
2713 0.647839 114.405 6.09765 0 0 0 0 0 0 
1 10.6222 6.44913 6.10312 0.15769 0.175569 -0.0434174 0.0712531 0.0922346 0.388887 
129 9.20561 6.37126 6.10085 -0.242918 -0.139822 -0.000716766 -0.465481 0.109562 0.18329 
128 8.46871 7.57148 6.08901 0.132959 0.0768605 0.0906721 -0.107216 0.247361 0.164743 
127 7.05152 7.48822 6.09136 -0.0660598 -0.0366034 -0.0114757 -0.0843899 0.0479609 0.0813273 
121 17.8744 1.8953 6.01763 -0.0268524 -0.0712013 0.0124927 -0.168255 0.344017 -0.672868 
120 15.6962 3.02121 6.14012 -0.0667625 0.00325242 -0.0464472 -0.714192 -0.0505374 -0.0799794 
119 13.5293 4.14418 6.11258 0.178997 -0.000760296 0.0557651 -0.279065 -0.0132772 1.08086 
118 11.3647 5.25515 6.09671 0.0505326 0.112003 0.0313943 -0.00550741 -0.239212 -0.168133 
115 9.23331 3.94578 6.10268 -0.0959306 0.0537372 0.00387134 -0.0050609 0.188592 -0.0593718 
114 8.48516 5.14009 6.10169 0.160716 0.00919581 -0.0330636 0.0133718 0.284853 0.476139 
113 7.06329 5.04429 6.10284 -0.0758402 -0.00138694 -0.03183 -0.0231976 -0.383183 0.592958 
112 6.33007 6.25092 6.09198 0.048655 0.0120215 0.024181 -0.248423 0.0524035 -0.0752975 
111 4.90868 6.16519 6.09765 0 0 0 0 0 0 
107 15.8024 0.639476 6.22672 0.146799 -0.028335 -0.0416231 -0.416009 0.0284066 0.396605 
106 13.6061 1.73001 6.13352 -0.00671756 0.0995264 -0.0502641 -0.386802 0.0454556 0.698358 
105 11.4075 2.84631 6.06954 -0.000743129 -0.0164489 0.0408672 -0.312321 -0.252802 0.421882 
104 17.1418 0.696826 5.92106 -0.0592462 0.00757896 0.00821646 -0.646043 0.33978 -0.777065 
103 14.9978 1.79193 6.16986 -0.00613005 0.0706654 -0.0317293 -0.252374 -0.195908 0.683053 
102 12.8367 2.91724 6.12163 -0.0999973 -0.10033 -0.0651628 -0.313924 0.0771808 0.633346 
101 10.6551 4.03313 6.09005 -0.0260046 -0.0790505 -0.00832763 -0.332975 0.386287 -0.496881 
98 9.30407 1.52839 6.11798 0.0381465 -0.0607079 0.0204577 -0.309286 -0.262446 -0.821603 
97 8.52694 2.71259 6.11083 -0.105805 0.0776628 0.0159757 0.0611369 -0.195311 -0.676978 
96 7.08069 2.60816 6.1024 0.00772595 0.0560179 -0.0303465 0.0973072 -0.0535727 -0.17872 
95 6.33798 3.80814 6.09701 -0.0263435 0.00756621 0.0569001 0.0346715 0.0563734 -0.122223 
94 4.90868 3.7052 6.09765 0 0 0 0 0 0 
90 11.5262 0.480205 5.83802 -0.163084 0.0869064 0.0186083 0.0458746 0.165998 -1.69103 
89 12.8741 0.527881 6.10488 0.0309991 0.047477 0.0163606 -0.622072 -0.138085 0.125637 
88 10.7005 1.6142 6.00971 0.153778 -0.0748936 0.0255941 -0.28053 0.271077 -1.03957 
85 8.56083 0.337892 6.26554 0.0149222 0.0542747 0.0322492 0.36025 -0.151377 0.067738 
84 7.19412 0.228919 6.11667 -0.0163592 -0.0215884 0.0366631 -0.206457 0.307377 2.17704 
83 6.34518 1.3629 6.11906 -0.0219386 -0.0167516 -0.0964613 -0.192084 0.409212 0.685864 
82 4.90868 1.2452 6.09765 0 0 0 0 0 0 
28 17.7671 6.71339 6.08559 -0.0156605 -0.0202715 -0.00500372 0.0741993 0.354894 0.357658 
2 12.7842 5.33365 6.10138 -0.0755782 -0.0115577 -0.0290417 -0.51339 -0.119441 0.395913 
24 19.1803 6.76665 6.08723 -0.0387872 -0.089097 0.0139866 -0.616134 0.097473 0.684781 
3 14.9458 4.20848 6.12157 0.0316155 0.153243 -0.00769713 0.144882 0.0551396 1.00254 
15 17.8054 4.30556 6.10954 0.107772 -0.0756714 -0.103817 -0.395503 0.199512 -1.18314 
14 15.6486 5.43259 6.10822 -0.0124999 -0.0329215 0.0241387 -0.107797 0.275603 0.737488 
13 13.4928 6.55523 6.0952 -0.130855 0.0574608 0.000321388 0.00713659 -0.319134 0.0635673 
4 17.1157 3.08162 6.07834 -0.0529459 -0.0233423 0.0181984 0.256349 0.0982491 -1.13138 
11 19.218 4.35513 6.10656 0.037633 -0.0837796 -0.0558095 -0.350617 -0.243733 -0.57111 
10 17.0624 5.49361 6.10067 -0.0340833 0.106006 0.0152277 -0.145168 0.389413 0.0270522 
9 14.9069 6.62539 6.09057 0.0988882 -0.0600106 0.0668408 -0.309493 0.067447 0.195234 
5 19.2606 1.93788 6.06312 -0.0954069 0.02586 0.0523675 -0.565767 0.317836 -1.23703 
7 10.604 8.8785 6.09262 -0.124096 -0.146177 -0.0240134 -0.366977 -0.295778 -0.00253083 
289 17.6839 16.3871 6.08841 -0.0739127 0.0306106 0.0429249 0.17083 0.455627 -0.312554 
285 19.0972 16.4388 6.08588 -0.0376538 -0.0116021 0.0221214 -0.212301 -0.129768 -0.185868 
200 17.695 13.9637 6.09475 0.125992 0.0490436 -0.0628364 0.145285 0.413533 0.1156 
199 15.557 15.1136 6.08747 -0.0714372 -0.0608289 -0.0385868 -0.0807268 0.413228 -0.215017 
198 13.4177 16.2627 6.08987 0.0963838 0.072428 0.0498993 -0.502758 0.0803127 0.0977524 
196 19.11 14.0158 6.08703 -0.0305225 0.0308 0.0428613 -0.164873 0.417826 0.263935 
195 16.9688 15.1665 6.09438 0.133027 0.10105 -0.0262649 -0.0342395 -0.354101 0.131903 
194 14.8323 16.3193 6.08912 -0.0175388 0.0213035 -0.000994536 0.0978208 0.414301 0.425643 
144 9.16666 13.6843 6.09786 -0.0784706 0.0157495 0.0313571 -0.70452 0.275574 0.161918 
143 8.44977 14.8972 6.09459 -0.0875374 0.175668 0.00377318 -0.262393 -0.244733 0.155691 
142 7.03445 14.8419 6.10528 0.0419194 -0.0895904 -0.0130355 -0.452811 -0.0386399 -0.0259074 
141 9.17664 11.2405 6.09189 -0.072759 0.0428663 -0.00355031 -0.19406 0.304041 -0.117285 
140 8.45422 12.4519 6.09845 -0.0591482 0.00759009 0.0158321 -0.189067 0.0592308 -0.222902 
139 7.03711 12.3861 6.09993 0.0716147 0.0801836 -0.0386788 -0.149357 0.123618 0.194229 
138 6.32451 13.6048 6.09813 -0.0898355 -0.0313714 0.0167206 0.0321541 -0.0308654 0.0396977 
137 4.90868 13.5452 6.09765 0 0 0 0 0 0 
136 9.18612 8.80214 6.09654 -0.0806443 0.0660818 -0.0158228 -0.0813581 -0.26204 0.00362305 
135 8.45839 10.0115 6.09516 0.103345 -0.102873 0.0382519 -0.356351 0.114085 -0.144909 
134 7.04303 9.93657 6.09464 -0.041274 -0.0721918 -0.0267763 -0.451521 -0.216403 -0.388505 
133 6.32483 11.1503 6.09578 -0.0407615 0.0552005 -0.00600226 -0.407456 0.130945 0.0156457 
132 4.90868 11.0852 6.09765 0 0 0 0 0 0 
126 6.32743 8.69926 6.09599 -0.0291601 0.0801391 -0.0538622 0.0933614 0.0845601 0.132879 
125 4.90868 8.62519 6.09765 0 0 0 0 0 0 
68 9.1584 16.1327 6.09146 0.0636413 -0.073596 0.0304672 0.274807 -0.227145 0.127065 
60 17.713 11.5453 6.08897 0.0686902 -0.0495381 0.0190108 0.000315534 -0.0406113 -0.204267 
59 15.5702 12.6874 6.09309 0.0595742 -0.0846028 -0.0292617 -0.134133 0.0631669 -0.326847 
58 13.4294 13.8313 6.08304 0.133367 -0.0800179 0.0238549 -0.165038 -0.181769 0.144618 
57 11.2927 14.979 6.09714 -0.0796151 -0.0894527 0.0186529 0.501385 -0.148376 0.120336 
56 19.1269 11.5959 6.08706 0.0363226 0.0707687 0.0300187 -0.0437617 0.0611466 0.224959 
55 16.985 12.745 6.09048 -0.136692 -0.0347499 0.0542558 0.18117 0.791394 0.213919 
54 14.8459 13.8889 6.0819 -0.158249 0.189681 0.0342232 0.26113 -0.0600736 -0.443318 
53 12.7066 15.0377 6.09194 -0.00346166 0.0369257 -0.00564041 0.197245 0.421624 0.636416 
52 10.5728 16.1894 6.09201 0.0773903 0.0911867 -0.0411787 0.138563 -0.0519864 -0.353812 
51 6.32176 16.0593 6.10449 0.0537175 0.0722802 -0.0227193 0.121641 -0.0718821 0.031438 
50 4.90868 16.0052 6.09765 0 0 0 0 0 0 
43 17.7395 9.12757 6.0819 -0.0656567 -0.00571469 -0.0217257 0.380462 -0.234901 -0.140369 
42 15.5917 10.2657 6.08652 -0.141864 -0.0784687 -0.0130854 0.404499 0.323839 0.163323 
41 13.4438 11.3992 6.08906 0.0636087 0.0899076 -0.0205016 -0.0126644 -0.11923 0.288681 
40 11.3031 12.5399 6.09647 0.0864002 -0.0184318 -0.0655327 0.0855949 0.275505 0.0689231 
39 19.1539 9.17629 6.08081 -0.115669 0.181869 0.0387114 0.0527496 0.257527 0.283474 
38 17.0047 10.3252 6.08828 0.0717 -0.0204873 0.0177577 -0.316123 0.523064 0.193397 
37 14.8589 11.465 6.08889 0.0238559 0.00581454 0.0242844 0.223446 0.369703 -0.139996 
36 12.7185 12.6046 6.0864 -0.0434686 0.0312663 0.028392 -0.621212 -0.0341782 0.0956928 
35 10.5797 13.7472 6.09935 0.0868005 0.165745 0.0220462 -0.206515 0.00228832 0.435274 
26 13.4645 8.97421 6.0961 -0.00103864 0.0630432 -0.0671084 0.0766321 -0.143203 -0.0729572 
25 11.3139 10.1043 6.08479 0.229867 0.132435 0.0790129 -0.00436184 0.162073 -0.600376 
22 14.8808 9.04223 6.08488 -0.105079 0.0885079 0.0619352 -0.164885 -0.0491343 0.0887541 
21 12.7318 10.1761 6.08623 -0.110417 -0.16131 0.065866 0.422029 0.22879 -0.117344 
20 10.5912 11.3112 6.09272 -0.0841841 0.009939 0.0194859 0.0354304 0.147394 0.128332 
290 19.8213 15.2343 6.08346 0.110955 0.0594529 0.0488729 0.0631855 0.376379 -0.638758 
27 15.6148 7.84648 6.09094 0.0726072 -0.040224 -0.0364653 0.0347166 -0.0967846 -0.390255 
23 17.0301 7.90851 6.08407 -0.0120934 -0.0716983 -0.0265579 -0.199014 -0.250393 -0.0254702 
12 11.3364 7.67637 6.09626 -0.0777929 -0.0219779 -0.000637127 -0.0481124 0.307971 -0.0366976 
8 12.7523 7.75052 6.10449 0.0977941 0.012473 -0.103809 -0.296701 0.331413 -0.197256 
352 17.6599 23.6774 6.10235 0.01803 -0.119094 -0.0405493 -0.236667 0.298002 -0.0792961 
351 15.5316 24.8514 6.11093 -0.0862906 -0.0251017 0.00958878 0.0632517 0.194857 0.287891 
348 16.9453 24.8882 6.10127 -0.0588584 0.226481 0.037749 -0.150147 -0.0837447 0.175667 
341 19.0725 23.7174 6.08805 0.122861 0.114421 0.0724028 -0.0281816 0.0205397 -0.447038 
332 15.5328 22.4127 6.10383 -0.0457084 -0.0354553 -0.00587594 -0.110673 0.0916673 0.461067 
331 13.4043 23.5807 6.10337 0.0163724 -0.00288435 -0.035524 0.0878346 0.0165401 -0.0669726 
330 11.275 24.756 6.0997 0.135229 -0.0102554 -0.0369195 -0.0622092 -0.392287 -0.16436 
329 14.8181 23.6257 6.10532 0.0202177 0.0519784 -0.0304656 -0.0263406 -0.29093 0.101984 
328 12.6917 24.7978 6.10029 -0.176322 -0.0116809 0.0425805 0.201896 -0.116361 0.0865937 
323 17.6657 21.2447 6.0855 0.0244162 0.134651 0.0812291 0.0388034 0.102648 0.142628 
322 19.0788 21.2913 6.08087 0.0234057 -0.05168 -0.00651266 -0.0178404 -0.351473 0.0264531 
321 16.9454 22.4553 6.09712 0.129902 -0.00612284 0.0163477 -0.0651428 -0.359116 0.0438975 
320 9.15349 23.4852 6.09102 -0.151956 -0.119301 -0.00217189 -0.256846 0.402806 -0.0286455 
319 8.44216 24.7055 6.08155 0.00678 -0.0306623 0.105572 0.0195339 -0.0778884 -0.069193 
318 7.0277 24.6632 6.0874 0.00643736 -0.0582859 0.0246527 0.169876 0.623344 0.15742 
312 13.4074 21.1404 6.10283 -0.0357342 -0.0225751 -0.0864072 0.0799649 0.0215728 -0.0951234 
311 11.2756 22.3087 6.09265 0.0691595 -0.110537 -0.00989676 -0.0888761 -0.0777636 0.191851 
310 12.6911 22.3538 6.09888 -0.0189605 0.0952347 0.00948201 0.175899 -0.544937 -0.161374 
309 10.5662 23.5265 6.09258 -0.0233751 0.0728731 0.0369344 -0.217488 0.40166 0.449865 
305 17.6738 18.8129 6.09559 -0.0969505 0.195603 -0.0101338 0.275621 0.16907 -0.273723 
304 15.5412 19.976 6.09182 -0.208197 0.0272774 -0.0368249 0.00601373 0.108742 0.228273 
303 19.0858 18.8624 6.08994 0.203482 0.0617069 -0.0345944 0.0161957 0.392729 -0.143968 
302 16.9523 20.0252 6.09887 0.146714 -0.164888 -0.0565513 0.265141 -0.109489 0.0751485 
301 14.8205 21.1872 6.09227 0.0965613 0.0631074 0.0305339 -0.0721239 0.0107102 0.366533 
295 9.15132 21.0325 6.09026 -0.0410967 0.0424617 -0.00356653 -0.0211025 -0.186157 -0.152405 
294 8.44101 22.2521 6.09076 0.0563879 0.0709244 -0.0214372 -0.0402933 0.313531 -0.344058 
293 7.02753 22.207 6.09058 0.0531211 -0.0587536 -0.0185328 -0.579697 0.211023 -0.172936 
292 6.32086 23.4287 6.08954 0.022578 0.00661074 -0.00880012 -0.0570532 -0.0994328 -0.0365961 
291 4.90868 23.3852 6.09765 0 0 0 0 0 0 
288 15.5457 17.5427 6.08974 -0.0514837 -0.0161651 -0.061444 -0.0391718 0.068437 0.0757077 
287 13.4108 18.7038 6.08706 0.0406649 -0.0985734 0.0680725 -0.502186 -0.270452 -0.248731 
286 11.2784 19.8629 6.0926 0.0831008 0.136219 -0.00135902 -0.0630031 0.103807 0.221058 
284 16.959 17.593 6.08767 0.0243977 0.0349366 0.0474132 -0.428429 -0.426762 -0.393505 
283 14.8254 18.7529 6.08721 0.0567737 0.0192426 0.0114354 -0.391029 0.236083 0.16996 
282 12.6932 19.9162 6.09742 -0.0122462 -0.0782203 -0.0478327 0.0209421 -0.0262723 0.362615 
281 10.5639 21.0783 6.09043 0.0657388 0.0869666 0.0446913 -0.11094 -0.258003 -0.282452 
209 9.15464 18.583 6.09661 0.0202389 0.016886 -0.0384644 -0.0979078 0.304553 0.0484282 
208 8.44318 19.8017 6.10017 -0.0433905 -0.138662 -0.0162486 -0.199926 0.240227 0.0185008 
207 7.02903 19.751 6.10164 -0.000216735 -0.0346661 -0.0411679 0.380838 -0.16142 0.190376 
206 6.32113 20.972 6.09395 0.00806297 0.0415476 0.0121843 0.381516 -0.0210492 0.00728308 
205 4.90868 20.9252 6.09765 0 0 0 0 0 0 
197 11.2855 17.4207 6.08895 -0.0321837 -0.0292487 0.0526698 -0.202532 0.0108849 -0.0642175 
193 12.6996 17.4745 6.09767 0.017724 0.0642049 -0.0936109 0.236583 0.479051 -0.430942 
192 10.5685 18.6359 6.09294 -0.00279179 -0.133039 -0.0042312 0.234544 -0.142774 -0.134109 
67 8.4476 17.3506 6.09365 -0.0618026 -0.0880756 -0.0109223 0.00523975 -0.123209 0.221698 
66 7.03401 17.2943 6.10559 -0.159048 0.049603 -0.0453405 -0.133476 -0.348631 -0.102807 
65 6.31961 18.5139 6.09999 0.164572 0.0874511 0.0586685 -0.0460535 -0.100812 0.333359 
64 4.90868 18.4652 6.09765 0 0 0 0 0 0 
306 19.8116 17.6575 6.0882 -0.0882133 0.0248723 0.0409897 -0.125489 -0.153692 0.0938216 
324 19.8017 20.0847 6.08243 -0.154112 -0.159912 0.0302017 -0.514744 0.183738 0.373441 
342 19.7936 22.5091 6.08773 -0.0195608 0.0273822 0.00426267 -0.0774049 -0.004842 -0.223762 
361 19.7887 24.9388 6.09138 -0.117372 0.0567057 -0.00229326 -0.0535554 0.45824 0.12733 
210 10.5596 30.8727 6.10133 0.15466 -0.0151081 -0.0336222 0.0465512 -0.215681 0.373185 
381 9.1492 33.2932 6.10155 0.028169 -0.016284 0.00570475 -0.0917322 -0.653036 -0.186225 
374 9.14844 30.842 6.09832 -0.09423 -0.0293623 0.0399544 0.642725 -0.185086 -0.373359 
373 8.44104 32.066 6.09652 0.0277846 -0.174217 0.00441879 -0.270714 0.141354 -0.0612825 
372 7.02738 32.0316 6.09474 0.000844351 -0.0133734 0.0302796 -0.207809 -0.0137122 -0.107231 
371 6.32121 33.2552 6.09096 0.0171393 0.0321946 0.004681 0.170457 -0.219464 -0.316581 
370 4.90868 33.2252 6.09765 0 0 0 0 0 0 
366 17.6563 26.1142 6.10106 -0.0445768 -0.0488822 -0.0203899 0.185237 0.476845 0.0557937 
365 15.5255 27.2865 6.10567 0.0328468 0.198467 -0.0613854 -0.3697 0.11753 0.221537 
364 13.395 28.4693 6.10131 0.0876566 -0.0265642 -0.0178672 0.590333 0.506171 0.0883441 
363 11.2723 29.6535 6.10341 -0.113089 -0.0464745 -0.0626767 -0.063599 0.328754 -0.0820164 
360 9.14873 28.3863 6.10897 0.0117782 0.045055 -0.0324517 0.42609 0.0688269 0.0394534 
359 8.44173 29.6097 6.10509 0.0104843 -0.0391638 -0.0392278 0.0553939 -0.00980048 0.0852652 
358 7.02877 29.5749 6.10263 -0.114983 0.00802609 -0.0255362 -0.0463845 0.12336 -0.0705443 
357 6.32027 30.7984 6.09636 0.124177 0.0261784 -0.0264438 0.172315 0.074316 0.275007 
356 4.90868 30.7652 6.09765 0 0 0 0 0 0 
350 13.4004 26.0262 6.10023 0.0528245 -0.0727998 0.00674757 0.255623 -0.0311228 0.141974 
349 11.2715 27.2021 6.09876 0.047681 0.0673692 -0.0385163 -0.0351322 0.175193 -0.235388 
347 14.814 26.0664 6.10772 0.0468454 -0.197909 -0.029593 -0.250979 0.456413 0.0337104 
346 12.6874 27.242 6.09706 -0.0978426 0.00733063 0.036091 0.274091 -0.167419 -0.497154 
345 10.5624 28.4245 6.09657 0.0193721 -0.0822052 0.0765926 0.377824 -0.523505 0.0177688 
340 9.15176 25.9361 6.10047 -0.106563 -0.0463789 -0.0534758 0.316307 0.105505 -0.624465 
339 8.44205 27.1554 6.10609 -0.0392248 0.00641181 -0.0542666 0.245453 0.099882 0.420087 
338 7.02732 27.1169 6.0992 0.0875999 0.0444718 -0.0191527 0.0599909 -0.651005 0.0555917 
337 6.32211 28.3409 6.09187 0.0416469 0.0633359 0.0985311 0.183498 -0.0174619 -0.0797441 
336 4.90868 28.3052 6.09765 0 0 0 0 0 0 
327 10.5629 25.9727 6.10235 0.125069 0.126103 -0.0424046 -0.121889 0.0533805 0.0397116 
317 6.31984 25.8859 6.09771 0.0834085 -0.112077 -0.0256317 0.0395041 -0.182216 -0.114702 
316 4.90868 25.8452 6.09765 0 0 0 0 0 0 
252 17.6476 33.4235 6.1056 0.124096 0.126967 0.0253512 0.0836874 0.117377 0.173207 
248 19.0642 33.4571 6.1074 -0.0913114 -0.109866 -0.00459481 -0.106118 -0.0912296 0.182416 
237 17.6509 30.9849 6.09305 -0.0911407 0.0701294 -0.0169382 -0.115917 0.307768 0.0612673 
236 15.521 32.1693 6.10427 0.0183478 0.0679965 0.0238523 0.1374 0.0687318 0.066427 
235 13.3975 33.3567 6.1048 -0.205213 0.136942 -0.00992289 -0.015827 -0.151961 0.0159496 
233 19.0642 31.0143 6.08885 0.0223084 0.306259 -0.0323561 0.454844 -0.0585218 -0.420153 
232 16.9352 32.2016 6.10246 0.0697429 -0.0651788 0.0188145 0.097164 -0.160377 0.142527 
231 14.8089 33.3887 6.1063 0.0975446 -0.046959 0.0419558 0.0369871 -0.276801 0.0434764 
224 17.6506 28.5518 6.10226 0.0466759 -0.117712 -0.0197553 -0.0666467 0.277051 0.639321 
223 15.5205 29.7292 6.10574 0.032703 -0.0205004 -0.0688694 0.289771 -0.202427 -0.117095 
222 13.394 30.9126 6.10231 -0.00874017 0.0741847 0.0424624 -0.353226 0.176913 -0.177218 
221 11.2712 32.0993 6.10459 -0.154049 0.122886 0.00190259 -0.132999 0.0250754 -0.331324 
220 19.0653 28.5833 6.0982 -0.0100045 0.1074 0.00366283 -0.657008 0.218881 -0.126957 
219 16.9345 29.7648 6.09923 0.0440987 -0.0152589 0.044023 0.00651069 -0.127202 -0.019459 
218 14.8081 30.9467 6.1067 -0.0456155 -0.0545379 -0.0578647 0.398111 0.0660543 0.128473 
217 12.6817 32.1327 6.10259 0.247271 -0.0332255 -0.0165155 0.0687876 0.24104 0.0153714 
216 10.5635 33.3236 6.11028 0.00122213 -0.121497 -0.0199752 -0.121979 -0.189747 -0.275056 
214 19.0696 26.1529 6.10025 0.0336485 -0.150669 0.0220991 0.348037 0.221045 0.0110905 
213 16.9395 27.3275 6.09964 -0.0188059 -0.025233 -0.0036246 0.0605007 0.0619981 -0.183702 
212 14.8102 28.5038 6.09808 -0.0509026 0.00128261 0.0726716 0.762741 0.0823943 0.0386141 
211 12.6849 29.6866 6.09694 -0.0556181 0.0357807 0.0121499 -0.0151523 0.294785 0.297689 
238 19.7803 29.8035 6.08854 0.0124385 -0.0930929 0.0312016 0.280296 0.244848 -0.282146 
225 19.7833 27.3723 6.10528 0.0719027 -0.0020189 -0.0535599 -0.128622 -0.0560365 0.166068 
253 19.7785 32.2398 6.09112 -0.0219942 -0.0587878 0.0488774 0.0280057 0.102293 -0.186751 
896 19.7742 41.9942 6.1074 -0.0143409 -0.126686 -0.0629508 -0.351169 0.212869 0.296663 
879 17.6479 40.7494 6.09827 -0.0971279 -0.120452 -0.0417029 -0.103169 0.0765196 0.149974 
878 15.5217 41.9462 6.10803 -0.12337 0.0121888 -0.051914 0.145111 0.0454967 0.120586 
877 13.3932 43.1468 6.10185 0.0216543 -0.0577751 0.0226532 0.264683 0.121103 0.0943903 
875 19.0619 40.77 6.10322 0.107659 0.0372921 -0.017764 -0.297327 -0.661356 0.195553 
874 16.9344 41.9673 6.09471 0.0864985 -0.0222866 0.0419105 0.196544 -0.32998 0.0435872 
880 19.7759 39.551 6.10333 0.0390282 0.103392 0.0145053 -0.16887 -0.0977878 -0.123938 
799 9.14676 43.1051 6.09476 -0.054221 0.0645307 0.0313224 -0.0662499 0.234724 0.644421 
790 17.6501 38.3064 6.09721 -0.047334 -0.0350633 -0.067038 0.151383 -0.240774 -0.136612 
789 15.5215 39.4979 6.09848 -0.0265176 0.10872 -0.0459455 0.304941 -0.254655 0.0821949 
788 13.3938 40.6995 6.09781 2.08643e-05 0.0150194 0.0633629 0.214879 0.0329425 -0.214734 
787 11.2675 41.9018 6.0981 0.0459225 -0.18164 0.0172524 0.2366 -0.0192555 0.112898 
786 19.063 38.3323 6.09948 -0.0148029 -0.14588 0.0114902 -0.0566544 0.208914 0.0901226 
785 16.9364 39.5236 6.09125 0.0232131 0.0799363 0.00791866 0.144135 0.596749 -0.16909 
784 14.8095 40.7214 6.09802 0.0585053 -0.0569372 0.0550299 0.428076 0.397656 -0.280056 
783 12.6838 41.9216 6.10006 -0.0175947 -0.0091049 -0.0443073 -0.0661261 -0.20872 -0.0648451 
782 10.5604 43.1245 6.09906 0.0342248 0.00448919 -0.0524562 -0.0451187 0.246031 0.037948 
389 9.14878 38.1996 6.10122 0.0140039 -0.0316456 -0.0189826 0.168621 -0.228637 0.289637 
388 8.43978 39.4233 6.09745 0.0714088 -0.0902493 0.0262488 0.0661353 -0.00798105 0.0620002 
387 7.0259 39.399 6.09509 0.0328675 0.0312277 0.0122053 -0.173589 0.342166 -0.169091 
386 9.15072 35.7456 6.09466 -0.0463809 -0.0461751 0.0321073 -0.267327 0.0934162 -0.1675 
385 8.44277 36.9695 6.09776 -0.00672935 -0.0365242 -0.0174417 -0.00273449 -0.349368 -0.372621 