ITEM: TIMESTEP
4200
ITEM: NUMBER OF ATOMS
4798
ITEM: BOX BOUNDS ff ff ff
-10.3577 110.358
-10.0998 131.9
-100.402 112.598
ITEM: ATOMS id x y z fx fy fz vx vy vz 
72 -0.062301 2.4752 6.09765 0 0 0 0 0 0 
110 4.19854 7.39519 6.09765 0 0 0 0 0 0 
109 2.77826 7.39519 6.09765 0 0 0 0 0 0 
93 4.19854 4.9352 6.09765 0 0 0 0 0 0 
92 2.77826 4.9352 6.09765 0 0 0 0 0 0 
91 2.06812 6.16519 6.09765 0 0 0 0 0 0 
87 0.647839 6.16519 6.09765 0 0 0 0 0 0 
86 -0.062301 7.39519 6.09765 0 0 0 0 0 0 
81 4.19854 2.4752 6.09765 0 0 0 0 0 0 
80 2.77826 2.4752 6.09765 0 0 0 0 0 0 
79 2.06812 3.7052 6.09765 0 0 0 0 0 0 
78 0.647839 3.7052 6.09765 0 0 0 0 0 0 
77 -0.062301 4.9352 6.09765 0 0 0 0 0 0 
76 4.19854 0.015197 6.09765 0 0 0 0 0 0 
75 2.77826 0.015197 6.09765 0 0 0 0 0 0 
74 2.06812 1.2452 6.09765 0 0 0 0 0 0 
73 0.647839 1.2452 6.09765 0 0 0 0 0 0 
6 -0.062301 12.3152 6.09765 0 0 0 0 0 0 
131 4.19854 12.3152 6.09765 0 0 0 0 0 0 
130 2.77826 12.3152 6.09765 0 0 0 0 0 0 
124 4.19854 9.85519 6.09765 0 0 0 0 0 0 
123 2.77826 9.85519 6.09765 0 0 0 0 0 0 
122 2.06812 11.0852 6.09765 0 0 0 0 0 0 
117 0.647839 11.0852 6.09765 0 0 0 0 0 0 
108 2.06812 8.62519 6.09765 0 0 0 0 0 0 
100 0.647839 8.62519 6.09765 0 0 0 0 0 0 
99 -0.062301 9.85519 6.09765 0 0 0 0 0 0 
34 4.19854 14.7752 6.09765 0 0 0 0 0 0 
33 2.77826 14.7752 6.09765 0 0 0 0 0 0 
32 2.06812 16.0052 6.09765 0 0 0 0 0 0 
31 0.647839 16.0052 6.09765 0 0 0 0 0 0 
19 2.06812 13.5452 6.09765 0 0 0 0 0 0 
18 0.647839 13.5452 6.09765 0 0 0 0 0 0 
17 -0.062301 14.7752 6.09765 0 0 0 0 0 0 
300 4.19854 24.6152 6.09765 0 0 0 0 0 0 
299 2.77826 24.6152 6.09765 0 0 0 0 0 0 
204 4.19854 22.1552 6.09765 0 0 0 0 0 0 
203 2.77826 22.1552 6.09765 0 0 0 0 0 0 
202 2.06812 23.3852 6.09765 0 0 0 0 0 0 
191 0.647839 23.3852 6.09765 0 0 0 0 0 0 
190 -0.062301 24.6152 6.09765 0 0 0 0 0 0 
71 2.06812 20.9252 6.09765 0 0 0 0 0 0 
70 0.647839 20.9252 6.09765 0 0 0 0 0 0 
69 -0.062301 22.1552 6.09765 0 0 0 0 0 0 
63 4.19854 19.6952 6.09765 0 0 0 0 0 0 
62 2.77826 19.6952 6.09765 0 0 0 0 0 0 
49 4.19854 17.2352 6.09765 0 0 0 0 0 0 
48 2.77826 17.2352 6.09765 0 0 0 0 0 0 
47 2.06812 18.4652 6.09765 0 0 0 0 0 0 
46 0.647839 18.4652 6.09765 0 0 0 0 0 0 
45 -0.062301 19.6952 6.09765 0 0 0 0 0 0 
30 -0.062301 17.2352 6.09765 0 0 0 0 0 0 
355 4.19854 31.9952 6.09765 0 0 0 0 0 0 
354 2.77826 31.9952 6.09765 0 0 0 0 0 0 
353 2.06812 33.2252 6.09765 0 0 0 0 0 0 
344 0.647839 33.2252 6.09765 0 0 0 0 0 0 
335 4.19854 29.5352 6.09765 0 0 0 0 0 0 
334 2.77826 29.5352 6.09765 0 0 0 0 0 0 
333 2.06812 30.7652 6.09765 0 0 0 0 0 0 
326 0.647839 30.7652 6.09765 0 0 0 0 0 0 
325 -0.062301 31.9952 6.09765 0 0 0 0 0 0 
315 4.19854 27.0752 6.09765 0 0 0 0 0 0 
314 2.77826 27.0752 6.09765 0 0 0 0 0 0 
313 2.06812 28.3052 6.09765 0 0 0 0 0 0 
308 0.647839 28.3052 6.09765 0 0 0 0 0 0 
307 -0.062301 29.5352 6.09765 0 0 0 0 0 0 
298 2.06812 25.8452 6.09765 0 0 0 0 0 0 
297 0.647839 25.8452 6.09765 0 0 0 0 0 0 
296 -0.062301 27.0752 6.09765 0 0 0 0 0 0 
215 -0.062301 36.9152 6.09765 0 0 0 0 0 0 
376 4.19854 36.9152 6.09765 0 0 0 0 0 0 
375 2.77826 36.9152 6.09765 0 0 0 0 0 0 
369 4.19854 34.4552 6.09765 0 0 0 0 0 0 
368 2.77826 34.4552 6.09765 0 0 0 0 0 0 
367 2.06812 35.6852 6.09765 0 0 0 0 0 0 
362 0.647839 35.6852 6.09765 0 0 0 0 0 0 
343 -0.062301 34.4552 6.09765 0 0 0 0 0 0 
258 4.19854 41.8352 6.09765 0 0 0 0 0 0 
257 2.77826 41.8352 6.09765 0 0 0 0 0 0 
256 2.06812 43.0652 6.09765 0 0 0 0 0 0 
255 0.647839 43.0652 6.09765 0 0 0 0 0 0 
243 4.19854 39.3752 6.09765 0 0 0 0 0 0 
242 2.77826 39.3752 6.09765 0 0 0 0 0 0 
241 2.06812 40.6052 6.09765 0 0 0 0 0 0 
240 0.647839 40.6052 6.09765 0 0 0 0 0 0 
239 -0.062301 41.8352 6.09765 0 0 0 0 0 0 
228 2.06812 38.1452 6.09765 0 0 0 0 0 0 
227 0.647839 38.1452 6.09765 0 0 0 0 0 0 
226 -0.062301 39.3752 6.09765 0 0 0 0 0 0 
254 -0.062301 44.2952 6.09765 0 0 0 0 0 0 
905 4.19854 51.6752 6.09765 0 0 0 0 0 0 
904 2.77826 51.6752 6.09765 0 0 0 0 0 0 
890 4.19854 49.2152 6.09765 0 0 0 0 0 0 
889 2.77826 49.2152 6.09765 0 0 0 0 0 0 
888 2.06812 50.4452 6.09765 0 0 0 0 0 0 
887 0.647839 50.4452 6.09765 0 0 0 0 0 0 
886 -0.062301 51.6752 6.09765 0 0 0 0 0 0 
794 4.19854 46.7552 6.09765 0 0 0 0 0 0 
793 2.77826 46.7552 6.09765 0 0 0 0 0 0 
792 2.06812 47.9852 6.09765 0 0 0 0 0 0 
781 0.647839 47.9852 6.09765 0 0 0 0 0 0 
780 -0.062301 49.2152 6.09765 0 0 0 0 0 0 
280 2.06812 45.5252 6.09765 0 0 0 0 0 0 
279 0.647839 45.5252 6.09765 0 0 0 0 0 0 
278 -0.062301 46.7552 6.09765 0 0 0 0 0 0 
272 4.19854 44.2952 6.09765 0 0 0 0 0 0 
271 2.77826 44.2952 6.09765 0 0 0 0 0 0 
959 4.19854 59.0552 6.09765 0 0 0 0 0 0 
958 2.77826 59.0552 6.09765 0 0 0 0 0 0 
957 2.06812 60.2852 6.09765 0 0 0 0 0 0 
952 0.647839 60.2852 6.09765 0 0 0 0 0 0 
945 4.19854 56.5952 6.09765 0 0 0 0 0 0 
944 2.77826 56.5952 6.09765 0 0 0 0 0 0 
943 2.06812 57.8252 6.09765 0 0 0 0 0 0 
934 0.647839 57.8252 6.09765 0 0 0 0 0 0 
933 -0.062301 59.0552 6.09765 0 0 0 0 0 0 
925 4.19854 54.1352 6.09765 0 0 0 0 0 0 
924 2.77826 54.1352 6.09765 0 0 0 0 0 0 
923 2.06812 55.3652 6.09765 0 0 0 0 0 0 
916 0.647839 55.3652 6.09765 0 0 0 0 0 0 
915 -0.062301 56.5952 6.09765 0 0 0 0 0 0 
903 2.06812 52.9052 6.09765 0 0 0 0 0 0 
898 0.647839 52.9052 6.09765 0 0 0 0 0 0 
897 -0.062301 54.1352 6.09765 0 0 0 0 0 0 
805 -0.062301 61.5152 6.09765 0 0 0 0 0 0 
966 4.19854 61.5152 6.09765 0 0 0 0 0 0 
965 2.77826 61.5152 6.09765 0 0 0 0 0 0 
862 4.19854 68.8952 6.09765 0 0 0 0 0 0 
861 2.77826 68.8952 6.09765 0 0 0 0 0 0 
848 4.19854 66.4352 6.09765 0 0 0 0 0 0 
847 2.77826 66.4352 6.09765 0 0 0 0 0 0 
846 2.06812 67.6652 6.09765 0 0 0 0 0 0 
845 0.647839 67.6652 6.09765 0 0 0 0 0 0 
844 -0.062301 68.8952 6.09765 0 0 0 0 0 0 
833 4.19854 63.9752 6.09765 0 0 0 0 0 0 
832 2.77826 63.9752 6.09765 0 0 0 0 0 0 
831 2.06812 65.2052 6.09765 0 0 0 0 0 0 
830 0.647839 65.2052 6.09765 0 0 0 0 0 0 
829 -0.062301 66.4352 6.09765 0 0 0 0 0 0 
818 2.06812 62.7452 6.09765 0 0 0 0 0 0 
817 0.647839 62.7452 6.09765 0 0 0 0 0 0 
816 -0.062301 63.9752 6.09765 0 0 0 0 0 0 
1828 4.19854 76.2752 6.09765 0 0 0 0 0 0 
1827 2.77826 76.2752 6.09765 0 0 0 0 0 0 
1826 2.06812 77.5052 6.09765 0 0 0 0 0 0 
1821 0.647839 77.5052 6.09765 0 0 0 0 0 0 
1813 4.19854 73.8152 6.09765 0 0 0 0 0 0 
1812 2.77826 73.8152 6.09765 0 0 0 0 0 0 
1811 2.06812 75.0452 6.09765 0 0 0 0 0 0 
1810 0.647839 75.0452 6.09765 0 0 0 0 0 0 
1809 -0.062301 76.2752 6.09765 0 0 0 0 0 0 
1717 4.19854 71.3552 6.09765 0 0 0 0 0 0 
1716 2.77826 71.3552 6.09765 0 0 0 0 0 0 
1715 2.06812 72.5852 6.09765 0 0 0 0 0 0 
1704 0.647839 72.5852 6.09765 0 0 0 0 0 0 
1703 -0.062301 73.8152 6.09765 0 0 0 0 0 0 
870 2.06812 70.1252 6.09765 0 0 0 0 0 0 
869 0.647839 70.1252 6.09765 0 0 0 0 0 0 
868 -0.062301 71.3552 6.09765 0 0 0 0 0 0 
1728 -0.062301 86.1152 6.09765 0 0 0 0 0 0 
1889 4.19854 86.1152 6.09765 0 0 0 0 0 0 
1888 2.77826 86.1152 6.09765 0 0 0 0 0 0 
1882 4.19854 83.6552 6.09765 0 0 0 0 0 0 
1881 2.77826 83.6552 6.09765 0 0 0 0 0 0 
1880 2.06812 84.8852 6.09765 0 0 0 0 0 0 
1875 0.647839 84.8852 6.09765 0 0 0 0 0 0 
1868 4.19854 81.1952 6.09765 0 0 0 0 0 0 
1867 2.77826 81.1952 6.09765 0 0 0 0 0 0 
1866 2.06812 82.4252 6.09765 0 0 0 0 0 0 
1857 0.647839 82.4252 6.09765 0 0 0 0 0 0 
1856 -0.062301 83.6552 6.09765 0 0 0 0 0 0 
1848 4.19854 78.7352 6.09765 0 0 0 0 0 0 
1847 2.77826 78.7352 6.09765 0 0 0 0 0 0 
1846 2.06812 79.9652 6.09765 0 0 0 0 0 0 
1839 0.647839 79.9652 6.09765 0 0 0 0 0 0 
1838 -0.062301 81.1952 6.09765 0 0 0 0 0 0 
1820 -0.062301 78.7352 6.09765 0 0 0 0 0 0 
1741 2.06812 87.3452 6.09765 0 0 0 0 0 0 
1740 0.647839 87.3452 6.09765 0 0 0 0 0 0 
2677 4.19854 95.9552 6.09765 0 0 0 0 0 0 
2676 2.77826 95.9552 6.09765 0 0 0 0 0 0 
1793 2.06812 94.7252 6.09765 0 0 0 0 0 0 
1792 0.647839 94.7252 6.09765 0 0 0 0 0 0 
1791 -0.062301 95.9552 6.09765 0 0 0 0 0 0 
1785 4.19854 93.4952 6.09765 0 0 0 0 0 0 
1784 2.77826 93.4952 6.09765 0 0 0 0 0 0 
1771 4.19854 91.0352 6.09765 0 0 0 0 0 0 
1770 2.77826 91.0352 6.09765 0 0 0 0 0 0 
1769 2.06812 92.2652 6.09765 0 0 0 0 0 0 
1768 0.647839 92.2652 6.09765 0 0 0 0 0 0 
1767 -0.062301 93.4952 6.09765 0 0 0 0 0 0 
1756 4.19854 88.5752 6.09765 0 0 0 0 0 0 
1755 2.77826 88.5752 6.09765 0 0 0 0 0 0 
1754 2.06812 89.8052 6.09765 0 0 0 0 0 0 
1753 0.647839 89.8052 6.09765 0 0 0 0 0 0 
1752 -0.062301 91.0352 6.09765 0 0 0 0 0 0 
1739 -0.062301 88.5752 6.09765 0 0 0 0 0 0 
2663 -0.062301 98.4152 6.09765 0 0 0 0 0 0 
2808 4.19854 103.335 6.09765 0 0 0 0 0 0 
2807 2.77826 103.335 6.09765 0 0 0 0 0 0 
2806 2.06812 104.565 6.09765 0 0 0 0 0 0 
2799 0.647839 104.565 6.09765 0 0 0 0 0 0 
2788 4.19854 100.875 6.09765 0 0 0 0 0 0 
2787 2.77826 100.875 6.09765 0 0 0 0 0 0 
2786 2.06812 102.105 6.09765 0 0 0 0 0 0 
2781 0.647839 102.105 6.09765 0 0 0 0 0 0 
2780 -0.062301 103.335 6.09765 0 0 0 0 0 0 
2773 4.19854 98.4152 6.09765 0 0 0 0 0 0 
2772 2.77826 98.4152 6.09765 0 0 0 0 0 0 
2771 2.06812 99.6452 6.09765 0 0 0 0 0 0 
2770 0.647839 99.6452 6.09765 0 0 0 0 0 0 
2769 -0.062301 100.875 6.09765 0 0 0 0 0 0 
2675 2.06812 97.1852 6.09765 0 0 0 0 0 0 
2664 0.647839 97.1852 6.09765 0 0 0 0 0 0 
2849 4.19854 110.715 6.09765 0 0 0 0 0 0 
2848 2.77826 110.715 6.09765 0 0 0 0 0 0 
2842 4.19854 108.255 6.09765 0 0 0 0 0 0 
2841 2.77826 108.255 6.09765 0 0 0 0 0 0 
2840 2.06812 109.485 6.09765 0 0 0 0 0 0 
2835 0.647839 109.485 6.09765 0 0 0 0 0 0 
2828 4.19854 105.795 6.09765 0 0 0 0 0 0 
2827 2.77826 105.795 6.09765 0 0 0 0 0 0 
2826 2.06812 107.025 6.09765 0 0 0 0 0 0 
2817 0.647839 107.025 6.09765 0 0 0 0 0 0 
2816 -0.062301 108.255 6.09765 0 0 0 0 0 0 
2798 -0.062301 105.795 6.09765 0 0 0 0 0 0 
2716 4.19854 113.175 6.09765 0 0 0 0 0 0 
2715 2.77826 113.175 6.09765 0 0 0 0 0 0 
2701 2.06812 111.945 6.09765 0 0 0 0 0 0 
2700 0.647839 111.945 6.09765 0 0 0 0 0 0 
2699 -0.062301 113.175 6.09765 0 0 0 0 0 0 
2688 -0.062301 110.715 6.09765 0 0 0 0 0 0 
2712 -0.062301 115.635 6.09765 0 0 0 0 0 0 
3636 4.19854 120.555 6.09765 0 0 0 0 0 0 
3635 2.77826 120.555 6.09765 0 0 0 0 0 0 
3634 2.06812 121.785 6.09765 0 0 0 0 0 0 
3623 0.647839 121.785 6.09765 0 0 0 0 0 0 
2753 2.06812 119.325 6.09765 0 0 0 0 0 0 
2752 0.647839 119.325 6.09765 0 0 0 0 0 0 
2751 -0.062301 120.555 6.09765 0 0 0 0 0 0 
2745 4.19854 118.095 6.09765 0 0 0 0 0 0 
2744 2.77826 118.095 6.09765 0 0 0 0 0 0 
2731 4.19854 115.635 6.09765 0 0 0 0 0 0 
2730 2.77826 115.635 6.09765 0 0 0 0 0 0 
2729 2.06812 116.865 6.09765 0 0 0 0 0 0 
2728 0.647839 116.865 6.09765 0 0 0 0 0 0 
2727 -0.062301 118.095 6.09765 0 0 0 0 0 0 
2714 2.06812 114.405 6.09765 0 0 0 0 0 0 
2713 0.647839 114.405 6.09765 0 0 0 0 0 0 
95 6.33748 3.807 6.11352 0.102374 -0.226414 -0.0262037 -1.14909 0.298981 0.78334 
90 11.5209 0.454875 5.99328 -0.112257 0.216905 0.0919411 -1.52076 0.444041 -1.14072 
96 7.0832 2.60243 6.13383 -0.0798638 0.00255796 0.0280437 -1.09773 1.15586 0.999745 
104 17.188 0.71695 6.08905 -0.325382 -0.064558 -0.00059861 1.01674 -1.48671 -1.57652 
85 8.55761 0.321862 6.28915 -0.0176993 0.146285 0.0409852 -1.4385 0.914465 2.33595 
83 6.34828 1.34817 6.11075 0.0366235 0.0935807 0.00451092 -0.224656 -0.301691 -0.496931 
112 6.33029 6.25366 6.0974 0.0328182 -0.475523 -0.00796793 0.12216 0.791783 -1.10443 
84 7.19906 0.204957 6.06736 -0.0385794 0.41063 0.0229805 -1.02437 0.476179 0.908184 
88 10.7016 1.59801 6.14896 0.155426 -0.0248431 -0.0458886 -0.691849 0.839099 -0.462098 
98 9.30392 1.52096 6.21357 -0.0291595 -0.170188 -0.0247862 -1.42538 -0.854372 -1.12568 
127 7.0506 7.48053 6.07231 0.256464 0.333727 0.175976 1.22001 1.09477 0.365618 
128 8.47496 7.57223 6.08349 -0.171995 -0.101497 0.00667862 -2.32829 -0.254144 0.489795 
97 8.52926 2.70507 6.20324 -0.28077 0.0774956 -0.11039 0.0682758 0.218271 0.888771 
113 7.06426 5.04181 6.10646 -0.299672 0.204836 0.0203247 0.133794 -1.50319 0.0132599 
94 4.90868 3.7052 6.09765 0 0 0 0 0 0 
111 4.90868 6.16519 6.09765 0 0 0 0 0 0 
82 4.90868 1.2452 6.09765 0 0 0 0 0 0 
4 17.1349 3.09321 6.24306 -0.0511513 0.149463 -0.0897003 1.14767 1.10737 1.39622 
5 19.2874 1.98083 6.48104 -0.180416 -0.351044 0.0293238 0.218618 0.775448 -0.47597 
89 12.875 0.512292 6.22504 0.207258 0.250493 -0.00438595 0.0836567 -0.757364 -0.792785 
118 11.3583 5.25813 6.19358 0.215175 -0.281868 -0.11856 -0.76542 0.424533 1.86287 
119 13.536 4.13804 6.20534 -0.0651544 -0.162624 0.0265877 0.496041 -0.994354 0.270565 
28 17.7783 6.72899 6.22606 -0.256708 0.176502 -0.220121 1.42018 -1.01408 1.70093 
106 13.6047 1.72308 6.20988 0.368682 -0.258766 -0.0455828 1.65091 -1.07825 1.42639 
102 12.8349 2.90227 6.2231 -0.0259006 0.574275 -0.0813207 -0.0618082 -0.661752 1.29023 
120 15.7085 3.03207 6.20027 0.0519509 0.0763354 0.114874 -0.165527 -0.901643 -0.291291 
115 9.22923 3.93925 6.17757 -0.0691628 0.327509 0.0402314 1.04745 -0.586023 -0.322654 
9 14.9104 6.62314 6.22265 -0.29488 -0.17194 -0.0158869 0.139088 0.155221 -0.981004 
10 17.067 5.51105 6.20888 0.50284 -0.334213 0.0291698 2.14431 1.33292 1.51897 
24 19.1915 6.78667 6.18978 0.0203218 -0.109258 0.16101 0.885971 -0.364547 -1.40567 
129 9.20803 6.36974 6.09545 -0.250679 -0.0701015 0.06745 2.14901 0.0896105 1.16364 
101 10.6495 4.02707 6.19328 0.126067 0.0665002 0.0149101 -0.0477867 -0.18701 0.119497 
1 10.6231 6.45457 6.13899 0.160407 0.117371 0.0440505 0.000302578 -0.985827 1.3953 
13 13.4885 6.55012 6.1962 0.214331 0.195166 0.0243407 0.206986 1.13861 0.826106 
2 12.7813 5.32441 6.20176 -0.0933894 0.167139 0.0191566 0.804278 -1.45612 0.103944 
11 19.2376 4.38387 6.24595 0.113564 -0.720768 0.0577725 0.109802 0.919513 -1.30322 
105 11.4025 2.83823 6.1769 0.167453 -0.0847915 0.0569583 1.68836 0.411997 -0.413304 
14 15.6564 5.43371 6.21603 -0.0259843 0.360454 -0.0860509 -1.73377 0.744247 -0.133639 
15 17.825 4.3205 6.21948 -0.255635 0.173765 0.0751621 0.196852 -1.57828 0.508329 
3 14.9583 4.22046 6.19697 -0.31473 -0.451649 0.117102 -0.472802 -0.262952 -0.557473 
114 8.48277 5.14209 6.12548 0.325894 -0.358942 -0.0175596 -0.112193 -1.02379 -0.99319 
107 15.8128 0.655163 6.18912 0.417591 -0.200388 -0.0425131 -0.594386 -1.5219 0.207543 
103 15.0049 1.80462 6.18116 -0.229708 -0.0245305 0.0987894 0.575114 1.77709 0.705044 
121 17.9046 1.91109 6.28143 0.207806 0.000925523 0.0055554 0.663722 -0.0609908 -0.232351 
192 10.5688 18.6377 6.09639 0.306545 -0.377123 0.00820406 0.253962 0.231182 -0.983191 
20 10.5952 11.3188 6.17761 -0.260025 -0.160552 -0.0361986 1.23861 -1.58806 0.693952 
302 16.9603 20.0414 6.12239 -0.0941664 0.0529031 0.0281062 -0.451879 0.037868 0.200152 
209 9.15901 18.5734 6.0915 -0.141933 0.311229 -0.0359207 0.212527 -1.68542 0.718523 
68 9.16143 16.1319 6.07368 -0.213376 -0.194858 -0.0551869 0.347344 -0.0238551 -1.50453 
281 10.5769 21.0815 6.07658 -0.46783 -0.168762 0.0938074 -0.427569 0.0186997 -0.0191495 
144 9.15947 13.6801 6.07818 0.306813 0.397513 0.131195 -1.25322 0.622153 0.157672 
328 12.6967 24.7955 6.10865 -0.364416 0.268394 -0.0891235 -0.0530319 0.0896033 1.84669 
206 6.32898 20.9637 6.09487 -0.397826 0.171322 0.0399374 0.501801 0.194433 -1.6794 
134 7.04932 9.921 6.098 -0.140667 0.494708 0.0929714 0.0829675 -1.28184 -1.40022 
133 6.32714 11.1407 6.10129 0.0839304 0.191162 -0.000469659 0.65423 -1.18545 0.623221 
322 19.0877 21.3003 6.11123 -0.334336 -0.389957 0.0674805 0.264306 0.42222 -0.740387 
309 10.569 23.5267 6.0861 -0.0939933 -0.149893 0.0312284 1.79979 -2.28546 -0.0658433 
319 8.43905 24.7002 6.08461 0.586799 0.139077 0.0616284 -0.904003 -0.202928 -0.377096 
293 7.03409 22.199 6.0873 -0.235327 0.0944344 0.0578584 -0.361377 -0.728775 -0.839546 
67 8.44913 17.346 6.07299 -0.218609 -0.0635428 0.0670935 -0.103265 0.0339321 0.744728 
193 12.7025 17.4903 6.11527 0.143285 -0.215397 0.000104584 -0.699609 0.109934 1.58513 
197 11.2884 17.4127 6.09766 -0.0544831 0.710613 -0.0498688 0.0277047 0.0624567 0.291253 
305 17.6791 18.8385 6.10902 0.0932705 -0.477571 0.0166381 -0.75308 -1.1878 0.539632 
66 7.03431 17.2863 6.09352 0.102839 0.0595652 0.00119467 -0.659727 1.57346 -1.2336 
208 8.4458 19.7927 6.09648 0.0913676 0.0674467 0.0307626 0.0782162 -0.0110064 1.91583 
361 19.7838 24.9558 6.08581 0.192815 -0.358275 -0.0517656 -0.311188 1.29102 1.017 
7 10.6118 8.88366 6.16309 -0.240762 0.165076 -0.162433 1.12246 -1.27183 0.617521 
320 9.16131 23.4784 6.08318 -0.560514 0.196097 -0.0432484 0.0112552 -0.734088 0.128711 
318 7.02939 24.6625 6.11307 -0.264335 -0.362115 -0.045791 0.0392556 0.391037 0.260535 
8 12.7567 7.75294 6.16386 -0.0457713 -0.129755 0.027403 -0.694544 -0.558089 0.098053 
12 11.3397 7.6837 6.15607 0.0896371 -0.233359 -0.0533512 -0.970494 -1.56727 -0.822971 
342 19.7919 22.5125 6.10409 0.601501 0.665049 -0.0226907 0.0169711 2.08352 -0.321845 
294 8.44496 22.2471 6.07279 0.179876 0.14631 0.0123362 1.43804 2.01227 0.659866 
65 6.32641 18.504 6.11135 -0.149436 0.356748 -0.0206562 1.08908 0.86483 0.148462 
207 7.03145 19.745 6.12423 0.08113 -0.312682 -0.124135 0.35223 0.540382 0.732061 
135 8.46541 10.0072 6.12248 -0.0887547 0.054323 -0.126935 -1.59922 -1.16043 1.26215 
136 9.19256 8.80226 6.09187 0.191413 0.0705398 0.236678 2.4418 -0.559041 -0.433388 
25 11.3282 10.1148 6.19126 -0.485024 -0.229514 -0.091001 0.347572 -0.780374 1.15933 
295 9.15789 21.0299 6.08385 0.0504669 -0.228592 -0.0294948 -2.15519 0.944993 -0.621981 
126 6.32782 8.69383 6.10736 0.00395423 -0.105768 -0.145295 0.514449 0.153497 0.435143 
51 6.31974 16.0576 6.1022 -0.128136 0.0607783 -0.088974 1.58797 -0.42252 1.44457 
137 4.90868 13.5452 6.09765 0 0 0 0 0 0 
132 4.90868 11.0852 6.09765 0 0 0 0 0 0 
125 4.90868 8.62519 6.09765 0 0 0 0 0 0 
50 4.90868 16.0052 6.09765 0 0 0 0 0 0 
198 13.4267 16.279 6.1286 -0.152876 -0.0821676 -0.125951 1.12452 0.548219 0.242764 
341 19.0799 23.7295 6.06332 -0.344281 -0.104878 0.229717 0.821175 0.999034 -0.746232 
60 17.7041 11.5574 6.11666 0.389355 -0.24453 0.0477995 -0.142617 -0.995186 -1.14548 
59 15.5715 12.6893 6.1394 -0.28528 0.57198 0.0436351 1.22735 0.874071 -0.306133 
324 19.8073 20.0894 6.11127 -0.165659 0.0828745 0.00917694 0.984008 0.571297 0.145489 
58 13.4338 13.8397 6.14929 0.155476 -0.0990839 -0.0777146 1.34389 3.75157 0.303231 
56 19.1218 11.6036 6.12654 0.0210383 0.0676547 0.0838574 -1.02905 0.52245 -1.19955 
138 6.31901 13.6042 6.08356 0.10569 -0.221822 0.0323037 -0.64237 0.222324 0.229534 
194 14.8425 16.3458 6.11881 -0.0768733 -0.322083 0.0551125 0.314681 0.11567 -0.0509271 
53 12.7089 15.0429 6.11085 -0.0894375 0.420654 0.103676 0.695628 0.323106 0.466474 
195 16.9785 15.1804 6.13014 0.206339 -0.101136 -0.0966011 1.02914 -0.501457 -0.351443 
43 17.7416 9.14429 6.18306 -0.265448 0.0625121 0.0693676 1.14989 -0.923638 0.751503 
42 15.5867 10.2704 6.16814 -0.31757 -0.161089 0.0489191 0.740033 -0.399093 0.361469 
196 19.1231 14.0266 6.11718 -0.343719 -0.138792 -0.0106822 -0.878166 -0.744526 1.12654 
39 19.1548 9.19111 6.2069 0.272937 0.187015 -0.199193 1.09869 0.853794 0.461508 
285 19.1 16.4528 6.09614 0.272374 -0.55064 0.0511621 0.296758 1.89343 -0.394767 
38 16.9969 10.341 6.14694 0.295754 -0.407908 0.0720769 0.899359 1.69818 -0.461831 
26 13.4704 8.97737 6.16106 -0.408096 0.00223596 0.193079 -0.225163 -0.557584 -1.29633 
22 14.8771 9.03935 6.213 0.332356 0.300524 -0.235475 -0.882141 -1.51287 0.402693 
303 19.0959 18.8699 6.09599 -0.1902 0.238887 0.148249 0.73699 0.361294 0.990143 
306 19.8123 17.6637 6.11845 0.394647 0.204903 -0.153731 0.628858 0.5533 1.58065 
23 17.0338 7.92614 6.20933 -0.118226 -0.483354 0.0850151 1.7179 -0.152421 0.674086 
27 15.6127 7.84067 6.22896 0.446383 0.552254 -0.0347771 0.65428 -0.524731 -0.660378 
289 17.6919 16.4046 6.10173 -0.242562 -0.13546 0.0633165 -0.487079 -0.595359 0.690167 
57 11.2863 14.9806 6.11192 0.517696 -0.0962282 -0.14808 -0.856051 0.00536234 -0.26827 
41 13.4398 11.4057 6.19186 0.265129 0.0822349 -0.132994 0.195685 1.33346 -0.390566 
205 4.90868 20.9252 6.09765 0 0 0 0 0 0 
291 4.90868 23.3852 6.09765 0 0 0 0 0 0 
199 15.5627 15.1355 6.14432 0.0451293 -0.205621 -0.0675577 -0.0931949 1.05739 -0.411679 
21 12.7367 10.1798 6.19385 0.196171 -0.0418803 -0.0334003 0.39318 0.29854 -0.594971 
64 4.90868 18.4652 6.09765 0 0 0 0 0 0 
36 12.7231 12.6118 6.17006 -0.421856 0.0533022 0.0468516 -1.51496 1.82723 -0.31799 
37 14.8512 11.4738 6.1637 0.234652 -0.273956 0.0516981 -0.6084 0.482017 -1.29436 
54 14.8514 13.9067 6.13568 -0.162492 -0.25138 0.0586501 0.306459 0.157595 -1.07688 
200 17.7112 13.9685 6.11879 -0.672752 0.345073 0.0311655 0.338637 0.134964 -1.29631 
55 16.9788 12.7533 6.13307 0.474615 0.304187 -0.0787137 -0.772452 -0.526478 -1.27547 
142 7.01949 14.8386 6.07871 0.678974 0.0173508 0.0651727 -0.721217 0.346706 0.297778 
311 11.2749 22.3101 6.10103 0.37761 0.0983378 -0.0393231 0.0563103 -0.206072 -0.351449 
143 8.44111 14.8994 6.08034 -0.0729984 -0.134382 -0.0624727 -2.1431 0.33218 -2.42276 
40 11.3012 12.547 6.17587 0.383218 0.0552112 -0.0819323 0.789534 1.39844 -0.108507 
52 10.572 16.1878 6.06886 0.0158142 0.158269 0.169396 0.990578 -0.793023 -1.08664 
140 8.45061 12.4512 6.10908 -0.0462801 0.137738 -0.0624821 -0.487871 0.845065 0.59855 
286 11.2893 19.8662 6.10318 -0.153969 -0.11786 -0.0991442 -1.1408 -1.40274 -0.168912 
287 13.4225 18.7192 6.10947 -0.24068 -0.522549 0.00349298 -0.446917 -2.02405 0.325037 
288 15.5579 17.5647 6.11737 -0.138121 -0.116352 -0.0340849 -0.749523 0.342719 0.109236 
330 11.2765 24.7483 6.09843 0.366619 0.379659 -0.0573063 -1.43875 1.21166 -0.390581 
139 7.04015 12.3866 6.09647 -0.339079 -0.190956 0.0202872 -1.28299 0.521312 0.109361 
141 9.17128 11.248 6.14059 0.436888 -0.430262 -0.0146451 -0.427809 -0.639633 -0.173328 
352 17.6608 23.6906 6.1039 0.0956805 -0.083023 0.0088569 -0.178338 0.956593 0.465776 
351 15.5389 24.8656 6.10256 -0.645168 -0.273398 -0.102282 -0.429614 -0.0899608 0.056219 
348 16.9433 24.9007 6.09403 0.28831 0.076823 -0.0430581 0.285942 0.420757 -0.0451486 
332 15.5407 22.4124 6.1248 -0.453107 1.04983 0.0452 -0.96032 -0.977986 0.764091 
331 13.404 23.5817 6.10301 0.18956 0.0882357 0.0811982 -0.384336 -0.0518343 1.73202 
329 14.8171 23.6392 6.10714 0.403015 -0.520647 0.0377117 -0.327291 0.864239 0.830295 
323 17.6724 21.2598 6.12934 -0.0203735 0.156278 0.00147589 0.492623 0.417522 0.295906 
35 10.5811 13.7524 6.1189 -0.397162 -0.131812 0.0109239 -0.118414 2.05885 -0.613261 
321 16.9434 22.4682 6.13911 0.68502 -0.00807846 -0.176389 0.294383 -0.380419 1.29742 
312 13.4126 21.1432 6.10477 -0.0524521 0.384035 0.103054 -0.403961 0.673635 -1.15588 
310 12.6904 22.3589 6.1137 0.0413571 -0.227482 -0.127121 -2.08031 0.975496 0.794073 
283 14.835 18.768 6.1082 0.0704891 0.354111 0.0536572 0.241832 0.230564 0.261493 
284 16.9671 17.61 6.10297 0.23216 0.275082 0.0481697 0.559043 1.18602 -1.69672 
304 15.5483 19.9973 6.12365 -0.0956324 -0.422216 0.00617458 -0.13077 0.336742 1.04128 
282 12.6992 19.9214 6.10652 0.116998 0.114241 -0.000663104 0.281498 1.42786 0.923066 
301 14.828 21.2026 6.13437 -0.354358 -0.293721 -0.137063 0.645162 -0.605316 0.960282 
292 6.31658 23.4196 6.11434 0.492132 0.335384 -0.12875 0.408615 -0.685197 -2.13827 
389 9.14251 38.2048 6.0703 0.169174 0.0203591 0.0876214 -0.278028 -0.281324 -0.866744 
384 7.02624 36.9523 6.07995 -0.0365232 -0.421532 -0.113862 -0.636377 -1.52299 -1.53628 
378 6.32874 35.7103 6.07438 -0.235329 0.160728 0.162213 -0.266867 -1.35488 -0.297147 
274 6.3218 43.0852 6.08936 -0.0740449 -0.115993 0.0818927 0.222539 -1.16124 1.53085 
371 6.3235 33.254 6.08214 -0.24002 0.19421 0.0843026 0.535211 -0.0490993 0.257593 
379 7.03031 34.4817 6.09797 0.0110051 0.294948 -0.197217 2.15904 1.5629 -0.549724 
225 19.7799 27.378 6.08762 0.183932 0.358527 -0.0635337 1.25933 1.13548 -0.454743 
214 19.0668 26.162 6.05455 -0.174974 0.058334 0.124448 -0.761282 0.221233 0.640351 
366 17.6524 26.1231 6.07117 0.0469984 0.131809 -0.118891 -0.671837 -0.0540469 0.686009 
364 13.3859 28.4713 6.07555 0.179079 -0.0731416 0.0647415 -1.16072 0.41764 -1.35319 
213 16.9352 27.3384 6.03217 0.0274468 -0.0514332 0.0867166 -0.986663 0.687849 -0.754548 
211 12.6768 29.6884 6.10844 -0.107948 -0.425603 0.0149133 1.06645 -0.666968 2.04389 
238 19.787 29.8146 6.09847 -0.165707 -0.0842584 -0.0350723 -0.724088 -2.52765 0.637947 
275 7.02894 41.8613 6.08185 0.123791 -0.0468419 0.128484 -1.03804 -0.548555 1.37895 
220 19.0729 28.5968 6.09103 -0.329716 -0.231546 -0.155866 0.317258 -1.16773 -0.963869 
365 15.5194 27.3061 6.03242 0.152193 -0.276553 0.130342 -0.492337 -1.55899 0.36018 
339 8.44159 27.1614 6.09679 0.110882 -0.199122 -0.120979 1.06915 0.134968 0.790824 
347 14.817 26.0758 6.06763 -0.0471649 0.0656904 0.0329989 -0.372202 0.395541 -1.50089 
346 12.6838 27.2388 6.08247 -0.148529 0.288329 -0.068743 -0.727976 -0.403393 1.00559 
350 13.4014 26.0326 6.09078 0.0996547 -0.487659 -0.0263949 -0.120043 1.34086 -0.320118 
233 19.0632 31.0176 6.08862 0.0603485 0.402327 0.0978462 -0.717006 0.385181 0.526696 
877 13.3997 43.1523 6.14548 -0.216449 -0.418663 -0.0233747 -0.0240884 -0.333987 0.24608 
381 9.13681 33.2917 6.08158 0.287725 -0.220392 0.014114 2.1948 -0.0959357 0.305073 
383 6.32433 38.1714 6.07793 -0.274458 0.13535 0.0457904 -0.0281397 -0.0569337 -0.100999 
878 15.5157 41.9449 6.16288 0.380301 -0.0409618 0.1255 -0.380286 -2.22899 2.65219 
874 16.9377 41.9607 6.15337 -0.235878 -0.312084 -0.0388241 0.906804 -0.567285 -0.164478 
262 12.6936 39.4604 6.11709 -0.140056 0.701024 0.0850581 0.189546 -1.44949 -0.700538 
789 15.5261 39.4972 6.17721 -0.156798 -0.293883 -0.169961 -0.0336375 -1.39823 -0.180244 
785 16.936 39.5154 6.12236 0.153083 -0.0567162 0.0505779 0.176146 0.339407 0.688014 
385 8.43646 36.9743 6.05952 0.244725 -0.00853187 -0.0144452 -0.684986 0.625681 -0.681032 
263 14.7985 38.2791 6.13465 0.417528 -0.151739 0.181857 -0.818499 0.549752 -0.0571221 
260 6.32904 40.6275 6.08401 -0.500205 0.232936 -0.0342874 -0.92353 -0.227099 -0.253977 
244 10.5607 38.2216 6.10193 0.0198664 0.38533 -0.0810203 0.459482 1.9995 1.54348 
267 13.3869 38.243 6.1316 0.329837 -0.0864954 -0.0184272 -0.0208994 -0.897777 -0.634583 
380 8.445 34.5133 6.05899 -0.360415 0.289871 0.0544846 0.467589 -1.71231 -0.097023 
265 19.0728 35.896 6.121 -0.0657831 0.058053 0.0392231 1.75017 0.859009 -0.875424 
264 16.9277 37.0785 6.11838 0.353414 -0.158296 0.0289169 0.49251 -0.631808 1.00974 
268 15.5146 37.0626 6.13808 -0.0265143 -0.324483 -0.067214 -0.815202 -1.68681 1.27421 
783 12.6961 41.9133 6.16545 -0.13749 0.285619 -0.151207 1.1314 -0.362537 -0.192455 
791 19.7819 37.1206 6.12266 0.219645 -0.476775 -0.118669 0.664431 0.87609 1.32255 
786 19.0634 38.3227 6.10773 -0.142952 0.522079 -0.0201653 0.554023 0.80954 2.28028 
880 19.7825 39.546 6.1145 -0.418999 -0.00673597 -0.0791907 0.0763239 -1.40215 -0.212035 
896 19.7759 41.9781 6.14336 -0.0595144 0.375879 -0.0686307 1.76171 0.498113 -0.638233 
270 19.7817 34.6778 6.11825 0.356658 0.239111 0.00237952 0.270648 1.23017 1.03004 
784 14.8202 40.71 6.197 -0.0635835 0.500745 -0.230321 0.258951 -0.62872 -1.15291 
879 17.655 40.7351 6.1419 -0.414259 0.316315 -0.129415 -0.385511 0.926315 1.24467 
875 19.065 40.7617 6.10851 0.0784708 -0.164386 0.180017 -1.05948 -0.811226 -1.47186 
790 17.6449 38.2938 6.09054 0.194227 0.296761 0.185444 -0.235223 -0.239856 -1.38604 
788 13.4101 40.6918 6.15025 -0.44148 -0.236178 0.118041 -0.65498 -0.0590915 -1.19409 
787 11.2723 41.9004 6.14262 0.370602 0.324702 -0.0210157 0.200416 0.667742 -1.22635 
269 17.6596 35.8643 6.1344 -0.680852 0.069056 -0.0949857 -0.211138 -0.405874 -0.595916 
370 4.90868 33.2252 6.09765 0 0 0 0 0 0 
317 6.32039 25.8839 6.10866 0.0971491 -0.0639412 -0.0837388 0.454687 -0.359456 -0.634184 
356 4.90868 30.7652 6.09765 0 0 0 0 0 0 
336 4.90868 28.3052 6.09765 0 0 0 0 0 0 
316 4.90868 25.8452 6.09765 0 0 0 0 0 0 
337 6.32517 28.3371 6.09559 -0.201718 0.155075 -0.0353676 0.674717 0.215705 1.14277 
338 7.02923 27.1141 6.08094 0.0394883 0.0838558 0.107565 1.80104 0.988507 -0.395987 
229 10.5608 35.7733 6.06628 -0.0700623 -0.135669 0.180552 -0.123033 0.0377564 0.79652 
230 12.6799 34.5725 6.12141 0.261586 0.265637 0.0565622 0.113518 -0.168199 0.136122 
216 10.5504 33.328 6.10506 0.274699 -0.217155 0.0792468 -0.745747 0.836256 -0.19154 
358 7.02427 29.5757 6.08215 -0.145286 0.13411 -0.00477195 -1.49907 -0.0730641 -0.861229 
373 8.43074 32.0574 6.08564 0.309596 0.195054 -0.111903 -0.781114 -0.0851009 0.98079 
357 6.31985 30.8087 6.06878 -0.0555072 -0.61243 0.118474 1.0621 -0.723194 -0.786813 
372 7.02004 32.0356 6.0855 0.236382 -0.213011 -0.0623733 0.447472 0.971774 1.76288 
248 19.061 33.4614 6.11103 -0.0768335 -0.182547 -0.0476923 -0.679743 -0.315421 -0.57688 
252 17.6418 33.432 6.09867 0.142752 -0.543841 0.0872104 1.36739 -2.03379 -0.399271 
218 14.8063 30.9643 6.06889 -0.329771 -0.932549 0.143334 0.223307 -0.212026 -1.82146 
236 15.5175 32.1725 6.09604 0.0179693 0.355772 -0.0193924 0.150066 0.575611 -1.57597 
231 14.8038 33.3877 6.10367 0.0791579 0.0274454 0.0637219 0.886918 -1.84211 0.662348 
253 19.7743 32.2423 6.0959 0.0576623 0.143603 -0.0513628 -0.148487 0.430236 -0.381745 
235 13.3938 33.3565 6.12891 -0.173812 -0.186744 -0.00804911 0.160387 1.07924 -0.964212 
232 16.9278 32.1975 6.09411 0.385108 0.529126 0.0210187 -0.329062 -1.19447 0.257479 
259 4.90868 40.6052 6.09765 0 0 0 0 0 0 
273 4.90868 43.0652 6.09765 0 0 0 0 0 0 
377 4.90868 35.6852 6.09765 0 0 0 0 0 0 
382 4.90868 38.1452 6.09765 0 0 0 0 0 0 
234 11.2696 34.5516 6.11611 -0.340654 -0.0245311 -0.193539 1.07707 -0.947735 -0.457437 
386 9.14522 35.7505 6.04913 0.00224228 -0.191294 0.101129 -1.07248 0.716503 -0.593224 
261 10.565 40.6778 6.1169 0.0695899 -0.245933 0.0452711 -1.17229 0.41727 1.55374 
250 13.3908 35.8048 6.11847 0.0255533 -0.347097 0.158883 0.976764 -0.142311 0.585643 
249 11.265 36.9974 6.09695 0.272161 0.128912 0.0766504 -0.867516 -0.278451 -0.936047 
245 12.6824 37.0179 6.14786 -0.289807 0.189788 -0.238427 0.938637 -0.155926 -0.849996 
277 9.15119 40.6597 6.105 -0.149894 -0.176128 -0.0683802 -0.507781 0.546746 0.424402 
266 11.2806 39.4552 6.10118 -0.417882 -0.248027 0.03154 -0.462188 0.410323 0.491916 
387 7.02155 39.4041 6.07469 0.32999 -0.0784683 0.0512917 -0.836241 0.556881 1.08634 