ITEM: TIMESTEP
4900
ITEM: NUMBER OF ATOMS
4798
ITEM: BOX BOUNDS ff ff ff
-10.3577 110.358
-10.0998 131.9
-100.402 112.598
ITEM: ATOMS id x y z fx fy fz vx vy vz 
72 -0.062301 2.4752 6.09765 0 0 0 0 0 0 
110 4.19854 7.39519 6.09765 0 0 0 0 0 0 
109 2.77826 7.39519 6.09765 0 0 0 0 0 0 
93 4.19854 4.9352 6.09765 0 0 0 0 0 0 
92 2.77826 4.9352 6.09765 0 0 0 0 0 0 
91 2.06812 6.16519 6.09765 0 0 0 0 0 0 
87 0.647839 6.16519 6.09765 0 0 0 0 0 0 
86 -0.062301 7.39519 6.09765 0 0 0 0 0 0 
81 4.19854 2.4752 6.09765 0 0 0 0 0 0 
80 2.77826 2.4752 6.09765 0 0 0 0 0 0 
79 2.06812 3.7052 6.09765 0 0 0 0 0 0 
78 0.647839 3.7052 6.09765 0 0 0 0 0 0 
77 -0.062301 4.9352 6.09765 0 0 0 0 0 0 
76 4.19854 0.015197 6.09765 0 0 0 0 0 0 
75 2.77826 0.015197 6.09765 0 0 0 0 0 0 
74 2.06812 1.2452 6.09765 0 0 0 0 0 0 
73 0.647839 1.2452 6.09765 0 0 0 0 0 0 
6 -0.062301 12.3152 6.09765 0 0 0 0 0 0 
131 4.19854 12.3152 6.09765 0 0 0 0 0 0 
130 2.77826 12.3152 6.09765 0 0 0 0 0 0 
124 4.19854 9.85519 6.09765 0 0 0 0 0 0 
123 2.77826 9.85519 6.09765 0 0 0 0 0 0 
122 2.06812 11.0852 6.09765 0 0 0 0 0 0 
117 0.647839 11.0852 6.09765 0 0 0 0 0 0 
108 2.06812 8.62519 6.09765 0 0 0 0 0 0 
100 0.647839 8.62519 6.09765 0 0 0 0 0 0 
99 -0.062301 9.85519 6.09765 0 0 0 0 0 0 
34 4.19854 14.7752 6.09765 0 0 0 0 0 0 
33 2.77826 14.7752 6.09765 0 0 0 0 0 0 
32 2.06812 16.0052 6.09765 0 0 0 0 0 0 
31 0.647839 16.0052 6.09765 0 0 0 0 0 0 
19 2.06812 13.5452 6.09765 0 0 0 0 0 0 
18 0.647839 13.5452 6.09765 0 0 0 0 0 0 
17 -0.062301 14.7752 6.09765 0 0 0 0 0 0 
300 4.19854 24.6152 6.09765 0 0 0 0 0 0 
299 2.77826 24.6152 6.09765 0 0 0 0 0 0 
204 4.19854 22.1552 6.09765 0 0 0 0 0 0 
203 2.77826 22.1552 6.09765 0 0 0 0 0 0 
202 2.06812 23.3852 6.09765 0 0 0 0 0 0 
191 0.647839 23.3852 6.09765 0 0 0 0 0 0 
190 -0.062301 24.6152 6.09765 0 0 0 0 0 0 
71 2.06812 20.9252 6.09765 0 0 0 0 0 0 
70 0.647839 20.9252 6.09765 0 0 0 0 0 0 
69 -0.062301 22.1552 6.09765 0 0 0 0 0 0 
63 4.19854 19.6952 6.09765 0 0 0 0 0 0 
62 2.77826 19.6952 6.09765 0 0 0 0 0 0 
49 4.19854 17.2352 6.09765 0 0 0 0 0 0 
48 2.77826 17.2352 6.09765 0 0 0 0 0 0 
47 2.06812 18.4652 6.09765 0 0 0 0 0 0 
46 0.647839 18.4652 6.09765 0 0 0 0 0 0 
45 -0.062301 19.6952 6.09765 0 0 0 0 0 0 
30 -0.062301 17.2352 6.09765 0 0 0 0 0 0 
355 4.19854 31.9952 6.09765 0 0 0 0 0 0 
354 2.77826 31.9952 6.09765 0 0 0 0 0 0 
353 2.06812 33.2252 6.09765 0 0 0 0 0 0 
344 0.647839 33.2252 6.09765 0 0 0 0 0 0 
335 4.19854 29.5352 6.09765 0 0 0 0 0 0 
334 2.77826 29.5352 6.09765 0 0 0 0 0 0 
333 2.06812 30.7652 6.09765 0 0 0 0 0 0 
326 0.647839 30.7652 6.09765 0 0 0 0 0 0 
325 -0.062301 31.9952 6.09765 0 0 0 0 0 0 
315 4.19854 27.0752 6.09765 0 0 0 0 0 0 
314 2.77826 27.0752 6.09765 0 0 0 0 0 0 
313 2.06812 28.3052 6.09765 0 0 0 0 0 0 
308 0.647839 28.3052 6.09765 0 0 0 0 0 0 
307 -0.062301 29.5352 6.09765 0 0 0 0 0 0 
298 2.06812 25.8452 6.09765 0 0 0 0 0 0 
297 0.647839 25.8452 6.09765 0 0 0 0 0 0 
296 -0.062301 27.0752 6.09765 0 0 0 0 0 0 
215 -0.062301 36.9152 6.09765 0 0 0 0 0 0 
376 4.19854 36.9152 6.09765 0 0 0 0 0 0 
375 2.77826 36.9152 6.09765 0 0 0 0 0 0 
369 4.19854 34.4552 6.09765 0 0 0 0 0 0 
368 2.77826 34.4552 6.09765 0 0 0 0 0 0 
367 2.06812 35.6852 6.09765 0 0 0 0 0 0 
362 0.647839 35.6852 6.09765 0 0 0 0 0 0 
343 -0.062301 34.4552 6.09765 0 0 0 0 0 0 
258 4.19854 41.8352 6.09765 0 0 0 0 0 0 
257 2.77826 41.8352 6.09765 0 0 0 0 0 0 
256 2.06812 43.0652 6.09765 0 0 0 0 0 0 
255 0.647839 43.0652 6.09765 0 0 0 0 0 0 
243 4.19854 39.3752 6.09765 0 0 0 0 0 0 
242 2.77826 39.3752 6.09765 0 0 0 0 0 0 
241 2.06812 40.6052 6.09765 0 0 0 0 0 0 
240 0.647839 40.6052 6.09765 0 0 0 0 0 0 
239 -0.062301 41.8352 6.09765 0 0 0 0 0 0 
228 2.06812 38.1452 6.09765 0 0 0 0 0 0 
227 0.647839 38.1452 6.09765 0 0 0 0 0 0 
226 -0.062301 39.3752 6.09765 0 0 0 0 0 0 
254 -0.062301 44.2952 6.09765 0 0 0 0 0 0 
905 4.19854 51.6752 6.09765 0 0 0 0 0 0 
904 2.77826 51.6752 6.09765 0 0 0 0 0 0 
890 4.19854 49.2152 6.09765 0 0 0 0 0 0 
889 2.77826 49.2152 6.09765 0 0 0 0 0 0 
888 2.06812 50.4452 6.09765 0 0 0 0 0 0 
887 0.647839 50.4452 6.09765 0 0 0 0 0 0 
886 -0.062301 51.6752 6.09765 0 0 0 0 0 0 
794 4.19854 46.7552 6.09765 0 0 0 0 0 0 
793 2.77826 46.7552 6.09765 0 0 0 0 0 0 
792 2.06812 47.9852 6.09765 0 0 0 0 0 0 
781 0.647839 47.9852 6.09765 0 0 0 0 0 0 
780 -0.062301 49.2152 6.09765 0 0 0 0 0 0 
280 2.06812 45.5252 6.09765 0 0 0 0 0 0 
279 0.647839 45.5252 6.09765 0 0 0 0 0 0 
278 -0.062301 46.7552 6.09765 0 0 0 0 0 0 
272 4.19854 44.2952 6.09765 0 0 0 0 0 0 
271 2.77826 44.2952 6.09765 0 0 0 0 0 0 
959 4.19854 59.0552 6.09765 0 0 0 0 0 0 
958 2.77826 59.0552 6.09765 0 0 0 0 0 0 
957 2.06812 60.2852 6.09765 0 0 0 0 0 0 
952 0.647839 60.2852 6.09765 0 0 0 0 0 0 
945 4.19854 56.5952 6.09765 0 0 0 0 0 0 
944 2.77826 56.5952 6.09765 0 0 0 0 0 0 
943 2.06812 57.8252 6.09765 0 0 0 0 0 0 
934 0.647839 57.8252 6.09765 0 0 0 0 0 0 
933 -0.062301 59.0552 6.09765 0 0 0 0 0 0 
925 4.19854 54.1352 6.09765 0 0 0 0 0 0 
924 2.77826 54.1352 6.09765 0 0 0 0 0 0 
923 2.06812 55.3652 6.09765 0 0 0 0 0 0 
916 0.647839 55.3652 6.09765 0 0 0 0 0 0 
915 -0.062301 56.5952 6.09765 0 0 0 0 0 0 
903 2.06812 52.9052 6.09765 0 0 0 0 0 0 
898 0.647839 52.9052 6.09765 0 0 0 0 0 0 
897 -0.062301 54.1352 6.09765 0 0 0 0 0 0 
805 -0.062301 61.5152 6.09765 0 0 0 0 0 0 
966 4.19854 61.5152 6.09765 0 0 0 0 0 0 
965 2.77826 61.5152 6.09765 0 0 0 0 0 0 
862 4.19854 68.8952 6.09765 0 0 0 0 0 0 
861 2.77826 68.8952 6.09765 0 0 0 0 0 0 
848 4.19854 66.4352 6.09765 0 0 0 0 0 0 
847 2.77826 66.4352 6.09765 0 0 0 0 0 0 
846 2.06812 67.6652 6.09765 0 0 0 0 0 0 
845 0.647839 67.6652 6.09765 0 0 0 0 0 0 
844 -0.062301 68.8952 6.09765 0 0 0 0 0 0 
833 4.19854 63.9752 6.09765 0 0 0 0 0 0 
832 2.77826 63.9752 6.09765 0 0 0 0 0 0 
831 2.06812 65.2052 6.09765 0 0 0 0 0 0 
830 0.647839 65.2052 6.09765 0 0 0 0 0 0 
829 -0.062301 66.4352 6.09765 0 0 0 0 0 0 
818 2.06812 62.7452 6.09765 0 0 0 0 0 0 
817 0.647839 62.7452 6.09765 0 0 0 0 0 0 
816 -0.062301 63.9752 6.09765 0 0 0 0 0 0 
1828 4.19854 76.2752 6.09765 0 0 0 0 0 0 
1827 2.77826 76.2752 6.09765 0 0 0 0 0 0 
1826 2.06812 77.5052 6.09765 0 0 0 0 0 0 
1821 0.647839 77.5052 6.09765 0 0 0 0 0 0 
1813 4.19854 73.8152 6.09765 0 0 0 0 0 0 
1812 2.77826 73.8152 6.09765 0 0 0 0 0 0 
1811 2.06812 75.0452 6.09765 0 0 0 0 0 0 
1810 0.647839 75.0452 6.09765 0 0 0 0 0 0 
1809 -0.062301 76.2752 6.09765 0 0 0 0 0 0 
1717 4.19854 71.3552 6.09765 0 0 0 0 0 0 
1716 2.77826 71.3552 6.09765 0 0 0 0 0 0 
1715 2.06812 72.5852 6.09765 0 0 0 0 0 0 
1704 0.647839 72.5852 6.09765 0 0 0 0 0 0 
1703 -0.062301 73.8152 6.09765 0 0 0 0 0 0 
870 2.06812 70.1252 6.09765 0 0 0 0 0 0 
869 0.647839 70.1252 6.09765 0 0 0 0 0 0 
868 -0.062301 71.3552 6.09765 0 0 0 0 0 0 
1728 -0.062301 86.1152 6.09765 0 0 0 0 0 0 
1889 4.19854 86.1152 6.09765 0 0 0 0 0 0 
1888 2.77826 86.1152 6.09765 0 0 0 0 0 0 
1882 4.19854 83.6552 6.09765 0 0 0 0 0 0 
1881 2.77826 83.6552 6.09765 0 0 0 0 0 0 
1880 2.06812 84.8852 6.09765 0 0 0 0 0 0 
1875 0.647839 84.8852 6.09765 0 0 0 0 0 0 
1868 4.19854 81.1952 6.09765 0 0 0 0 0 0 
1867 2.77826 81.1952 6.09765 0 0 0 0 0 0 
1866 2.06812 82.4252 6.09765 0 0 0 0 0 0 
1857 0.647839 82.4252 6.09765 0 0 0 0 0 0 
1856 -0.062301 83.6552 6.09765 0 0 0 0 0 0 
1848 4.19854 78.7352 6.09765 0 0 0 0 0 0 
1847 2.77826 78.7352 6.09765 0 0 0 0 0 0 
1846 2.06812 79.9652 6.09765 0 0 0 0 0 0 
1839 0.647839 79.9652 6.09765 0 0 0 0 0 0 
1838 -0.062301 81.1952 6.09765 0 0 0 0 0 0 
1820 -0.062301 78.7352 6.09765 0 0 0 0 0 0 
1741 2.06812 87.3452 6.09765 0 0 0 0 0 0 
1740 0.647839 87.3452 6.09765 0 0 0 0 0 0 
2677 4.19854 95.9552 6.09765 0 0 0 0 0 0 
2676 2.77826 95.9552 6.09765 0 0 0 0 0 0 
1793 2.06812 94.7252 6.09765 0 0 0 0 0 0 
1792 0.647839 94.7252 6.09765 0 0 0 0 0 0 
1791 -0.062301 95.9552 6.09765 0 0 0 0 0 0 
1785 4.19854 93.4952 6.09765 0 0 0 0 0 0 
1784 2.77826 93.4952 6.09765 0 0 0 0 0 0 
1771 4.19854 91.0352 6.09765 0 0 0 0 0 0 
1770 2.77826 91.0352 6.09765 0 0 0 0 0 0 
1769 2.06812 92.2652 6.09765 0 0 0 0 0 0 
1768 0.647839 92.2652 6.09765 0 0 0 0 0 0 
1767 -0.062301 93.4952 6.09765 0 0 0 0 0 0 
1756 4.19854 88.5752 6.09765 0 0 0 0 0 0 
1755 2.77826 88.5752 6.09765 0 0 0 0 0 0 
1754 2.06812 89.8052 6.09765 0 0 0 0 0 0 
1753 0.647839 89.8052 6.09765 0 0 0 0 0 0 
1752 -0.062301 91.0352 6.09765 0 0 0 0 0 0 
1739 -0.062301 88.5752 6.09765 0 0 0 0 0 0 
2663 -0.062301 98.4152 6.09765 0 0 0 0 0 0 
2808 4.19854 103.335 6.09765 0 0 0 0 0 0 
2807 2.77826 103.335 6.09765 0 0 0 0 0 0 
2806 2.06812 104.565 6.09765 0 0 0 0 0 0 
2799 0.647839 104.565 6.09765 0 0 0 0 0 0 
2788 4.19854 100.875 6.09765 0 0 0 0 0 0 
2787 2.77826 100.875 6.09765 0 0 0 0 0 0 
2786 2.06812 102.105 6.09765 0 0 0 0 0 0 
2781 0.647839 102.105 6.09765 0 0 0 0 0 0 
2780 -0.062301 103.335 6.09765 0 0 0 0 0 0 
2773 4.19854 98.4152 6.09765 0 0 0 0 0 0 
2772 2.77826 98.4152 6.09765 0 0 0 0 0 0 
2771 2.06812 99.6452 6.09765 0 0 0 0 0 0 
2770 0.647839 99.6452 6.09765 0 0 0 0 0 0 
2769 -0.062301 100.875 6.09765 0 0 0 0 0 0 
2675 2.06812 97.1852 6.09765 0 0 0 0 0 0 
2664 0.647839 97.1852 6.09765 0 0 0 0 0 0 
2849 4.19854 110.715 6.09765 0 0 0 0 0 0 
2848 2.77826 110.715 6.09765 0 0 0 0 0 0 
2842 4.19854 108.255 6.09765 0 0 0 0 0 0 
2841 2.77826 108.255 6.09765 0 0 0 0 0 0 
2840 2.06812 109.485 6.09765 0 0 0 0 0 0 
2835 0.647839 109.485 6.09765 0 0 0 0 0 0 
2828 4.19854 105.795 6.09765 0 0 0 0 0 0 
2827 2.77826 105.795 6.09765 0 0 0 0 0 0 
2826 2.06812 107.025 6.09765 0 0 0 0 0 0 
2817 0.647839 107.025 6.09765 0 0 0 0 0 0 
2816 -0.062301 108.255 6.09765 0 0 0 0 0 0 
2798 -0.062301 105.795 6.09765 0 0 0 0 0 0 
2716 4.19854 113.175 6.09765 0 0 0 0 0 0 
2715 2.77826 113.175 6.09765 0 0 0 0 0 0 
2701 2.06812 111.945 6.09765 0 0 0 0 0 0 
2700 0.647839 111.945 6.09765 0 0 0 0 0 0 
2699 -0.062301 113.175 6.09765 0 0 0 0 0 0 
2688 -0.062301 110.715 6.09765 0 0 0 0 0 0 
2712 -0.062301 115.635 6.09765 0 0 0 0 0 0 
3636 4.19854 120.555 6.09765 0 0 0 0 0 0 
3635 2.77826 120.555 6.09765 0 0 0 0 0 0 
3634 2.06812 121.785 6.09765 0 0 0 0 0 0 
3623 0.647839 121.785 6.09765 0 0 0 0 0 0 
2753 2.06812 119.325 6.09765 0 0 0 0 0 0 
2752 0.647839 119.325 6.09765 0 0 0 0 0 0 
2751 -0.062301 120.555 6.09765 0 0 0 0 0 0 
2745 4.19854 118.095 6.09765 0 0 0 0 0 0 
2744 2.77826 118.095 6.09765 0 0 0 0 0 0 
2731 4.19854 115.635 6.09765 0 0 0 0 0 0 
2730 2.77826 115.635 6.09765 0 0 0 0 0 0 
2729 2.06812 116.865 6.09765 0 0 0 0 0 0 
2728 0.647839 116.865 6.09765 0 0 0 0 0 0 
2727 -0.062301 118.095 6.09765 0 0 0 0 0 0 
2714 2.06812 114.405 6.09765 0 0 0 0 0 0 
2713 0.647839 114.405 6.09765 0 0 0 0 0 0 
95 6.33767 3.81484 6.08032 0.240314 0.125633 0.0681915 -0.387392 0.0634291 1.02034 
90 11.5485 0.502828 5.87018 -0.307403 -0.224943 0.0548063 0.648469 -1.61389 -0.451334 
96 7.0783 2.61436 6.0572 0.0765755 0.579445 0.00417769 -0.0438945 -2.28521 1.88402 
104 17.1895 0.724749 5.78845 -0.575884 -0.199302 -0.0414834 1.26635 -1.57987 -0.534885 
113 7.07264 5.05173 6.10983 -0.114412 -0.0922931 -0.214105 1.66269 -0.0152472 0.792333 
97 8.52527 2.71816 6.03366 0.0629723 0.364162 0.174145 0.226833 0.638473 0.73487 
112 6.33771 6.25857 6.0976 -0.191679 -0.230383 -0.0268312 0.400082 -1.54434 0.2521 
128 8.47011 7.5821 6.06288 0.155186 -0.31219 0.0358495 0.0941249 0.147402 -1.4731 
88 10.7111 1.62524 6.01809 -0.124061 0.121743 -0.132539 0.081186 -1.1818 -2.30812 
127 7.05741 7.49096 6.06912 -0.178839 0.104148 0.087282 -0.775745 -0.0355196 0.518233 
118 11.366 5.27981 6.13399 -0.0488968 -0.233886 -0.205926 -1.96993 0.641303 0.643123 
115 9.2406 3.95641 6.06929 -0.266255 -0.129799 -0.00522932 -0.24677 0.0117573 -1.27772 
129 9.21078 6.38621 6.09099 -0.288014 -0.161057 -0.0980023 -1.94468 -0.230193 -0.535047 
101 10.6597 4.05033 6.08641 0.0984755 -0.139533 0.0385865 -0.918583 -0.0623715 0.10118 
114 8.49791 5.1524 6.07101 -0.263127 -0.093632 0.152222 0.219698 -1.28112 -2.09422 
1 10.6234 6.47272 6.10608 0.273724 -0.0180783 0.0557326 1.13285 1.20001 -0.951007 
2 12.7821 5.35251 6.11672 0.364573 -0.138663 -0.0304009 0.0398998 0.391757 1.40076 
105 11.4114 2.85961 6.06698 0.296511 0.304859 0.112819 -0.656875 -0.840399 -0.766395 
94 4.90868 3.7052 6.09765 0 0 0 0 0 0 
111 4.90868 6.16519 6.09765 0 0 0 0 0 0 
82 4.90868 1.2452 6.09765 0 0 0 0 0 0 
4 17.1391 3.09458 6.05974 -0.520518 -0.0531581 -0.0902918 -0.0754122 -1.34854 -1.08222 
5 19.2765 1.95604 6.21222 0.10581 -0.115626 -0.043319 0.195956 2.37958 -1.05567 
89 12.8823 0.557328 6.18073 0.277321 -0.12217 -0.0172353 0.851603 -1.06827 0.30322 
121 17.8961 1.90893 6.02867 0.497961 0.0832982 0.0872112 0.914644 -0.35053 -1.11408 
119 13.5457 4.16563 6.11462 -0.656902 -0.0668039 0.0666639 -0.315776 -0.712382 1.52043 
28 17.7724 6.7271 6.12684 0.368748 -0.108995 -0.0568789 1.27872 -1.33204 0.0388691 
106 13.6244 1.74849 6.09469 -0.00623739 0.0527862 0.0560275 0.800372 -0.804674 0.0605699 
102 12.8496 2.93262 6.1213 -0.0735183 0.232086 -0.123876 -2.32534 -0.846865 0.0631453 
120 15.7144 3.03381 6.06265 -0.0979395 0.185936 0.095031 0.398376 0.905491 -0.998169 
103 15.0185 1.80267 6.02092 -0.0974756 -0.236836 0.0942369 0.130124 0.814436 0.347216 
9 14.9097 6.63412 6.09757 0.1465 0.501763 0.0445455 0.98975 1.71862 -1.02799 
10 17.0721 5.50694 6.09932 0.18792 -0.0213858 0.0575399 -0.674087 -0.418978 0.451085 
24 19.192 6.77853 6.0897 -0.134994 -0.112106 0.12164 0.236423 1.11938 0.989029 
107 15.8209 0.638126 5.95823 0.276812 0.294016 -0.0354697 2.59202 0.757069 -0.647162 
3 14.9556 4.22415 6.09901 0.717834 0.0962215 0.0111566 0.37834 1.22964 -1.87609 
15 17.8185 4.31772 6.07281 0.0419529 0.201352 -0.0134702 -1.80807 2.561 -1.4239 
13 13.4905 6.57385 6.09336 0.252816 0.0507849 0.0966595 -0.395982 0.0162675 -1.15251 
14 15.6642 5.45437 6.09949 -0.535406 -0.624478 0.0125494 -0.581455 -0.203564 0.516262 
11 19.2258 4.36737 6.05578 0.309201 -0.0703204 0.170041 -1.56195 -2.34381 -0.95388 
85 8.56768 0.335227 6.03709 -0.00684249 0.139882 0.0327189 1.21348 -0.635679 1.16712 
83 6.33669 1.39002 6.05901 0.497266 -0.908228 0.091278 -2.08017 3.17363 -0.376683 
84 7.19108 0.254634 6.06076 -0.147033 -0.119405 -0.00164362 -1.71329 1.14661 1.18531 
98 9.30755 1.53875 6.03742 0.166717 -0.164939 -0.0612617 -0.274373 -0.0151564 2.61576 
51 6.32528 16.0522 6.07132 -0.216611 0.440173 0.047983 -1.00985 1.48834 0.812449 
25 11.3185 10.1224 6.0778 -0.127298 -0.12078 0.064536 1.00077 -1.22914 -0.0104197 
136 9.18319 8.80459 6.06887 0.335911 0.35571 0.128986 1.74493 1.30021 0.502224 
144 9.16804 13.681 6.05987 0.34619 0.577235 0.0124016 0.210219 -1.27917 0.341265 
12 11.3395 7.69503 6.10916 0.145648 0.130256 -0.0318866 0.749064 -0.209143 -0.930845 
7 10.605 8.89427 6.10171 -0.227586 -0.0299164 -0.143343 0.0491192 0.303415 -2.14442 
36 12.7256 12.6167 6.06802 0.338366 -0.255387 0.00246631 0.662664 0.795961 1.00599 
142 7.03229 14.8369 6.05748 0.154417 0.140639 0.0890461 -1.2515 1.46964 -1.04573 
143 8.44363 14.8964 6.04999 0.12998 -0.12743 0.0409173 0.961395 -0.94858 -0.406878 
140 8.45245 12.4584 6.09756 -0.11874 -0.379231 -0.0238516 -0.828799 -0.695452 0.610872 
35 10.5929 13.7681 6.03138 -0.353759 -0.965908 0.0659377 1.8885 0.901631 -1.09207 
295 9.14509 21.0248 6.12267 0.31312 -0.0754645 -0.171521 -0.712774 -0.00877489 -0.208655 
209 9.15169 18.5726 6.05643 0.246771 0.26217 -0.00816939 1.17582 -1.61295 0.0332131 
281 10.5658 21.0694 6.09858 -0.000216566 0.356912 0.0310335 0.0158993 0.583326 0.297588 
207 7.02779 19.7545 6.06646 -0.302467 -0.284577 0.127375 -0.299751 1.08705 0.187691 
206 6.31283 20.9699 6.10671 0.414528 -0.0430918 -0.0799111 -0.0680586 0.336047 -0.281036 
65 6.3206 18.5165 6.06939 0.104383 -0.0322592 0.061543 -0.13313 -0.782892 0.357591 
294 8.43572 22.2459 6.12691 0.00127869 -0.191069 -0.0555255 -0.675075 -0.139564 -1.38043 
208 8.43593 19.7917 6.06792 0.315079 0.158149 0.0785764 0.176683 0.249074 2.51934 
293 7.02268 22.1978 6.11585 0.0647438 0.37724 0.00344096 1.43982 1.24967 -1.20762 
67 8.44216 17.3471 6.04629 0.0597482 -0.338565 0.073703 -0.578696 0.736843 -1.72462 
66 7.03145 17.2949 6.07453 -0.155633 -0.0733129 -0.0969842 -0.616723 1.76373 0.540086 
303 19.0951 18.8583 6.13418 -0.169994 0.146208 0.0109839 0.0854765 -0.0813385 -1.17561 
137 4.90868 13.5452 6.09765 0 0 0 0 0 0 
132 4.90868 11.0852 6.09765 0 0 0 0 0 0 
125 4.90868 8.62519 6.09765 0 0 0 0 0 0 
50 4.90868 16.0052 6.09765 0 0 0 0 0 0 
198 13.4379 16.2669 6.10503 -0.0558068 -0.0321258 -0.125211 -0.559914 -0.485704 -0.98235 
60 17.7206 11.5474 6.10076 -0.178651 -0.0230466 -0.181234 1.66299 -0.536402 0.000772265 
59 15.5828 12.6893 6.07101 -0.0912084 0.162413 0.0598365 1.43316 -0.804895 0.371903 
58 13.4576 13.8316 6.09018 -0.646423 0.166667 -0.145063 0.873855 0.112302 -2.11983 
56 19.1256 11.6024 6.10304 0.446423 0.0163297 -0.103123 2.57502 -0.326565 -1.22357 
138 6.32432 13.6136 6.09284 -0.209828 -0.6728 -0.0434384 0.948611 -0.911911 0.209212 
194 14.8535 16.3239 6.11382 0.143457 -0.148503 0.0194949 2.98896 0.837649 1.0184 
53 12.7299 15.0383 6.06207 -0.125443 0.085299 0.0970751 2.0246 0.256425 1.49957 
195 16.9979 15.1756 6.06653 -0.0782205 -0.45537 0.0602766 -0.476869 0.50302 -0.249996 
43 17.7412 9.12981 6.11319 0.471592 0.207153 -0.0338903 1.12731 -0.105276 0.47611 
42 15.5983 10.2815 6.08035 -0.0226887 -0.492352 0.0434366 0.0431987 -2.04015 1.45423 
196 19.1303 14.0211 6.07873 -0.0816895 -0.625367 -0.0544787 3.40524 0.580362 -1.12696 
39 19.1615 9.18264 6.1114 -0.445595 0.696985 -0.0345804 -0.777416 -1.31207 -0.0528989 
285 19.1149 16.4353 6.0673 0.00142543 0.169728 0.170656 0.395507 -0.162425 -0.21604 
38 17.0139 10.3256 6.07498 -0.182495 0.352456 0.152979 0.184295 0.639634 1.34487 
26 13.468 8.98962 6.0861 0.188073 0.276472 0.130465 -0.240642 0.8117 0.831106 
22 14.8883 9.0569 6.11297 -0.242799 0.0940992 -0.14182 -1.41682 -1.78646 -0.0166412 
23 17.0376 7.91836 6.14333 -0.318536 -0.176323 -0.0976156 -0.337154 -0.187044 -0.538717 
27 15.6222 7.86021 6.11919 -0.116081 -0.193542 -0.0129258 1.26326 1.02318 -0.468824 
289 17.7054 16.3868 6.08637 0.0387882 0.324754 -0.0367105 -1.13933 -1.03137 0.13777 
57 11.3113 14.9819 6.02415 0.0213375 0.0905233 0.0887111 0.0860206 -1.58803 -0.681575 
41 13.4483 11.4053 6.07296 0.10828 0.375457 0.0015546 -0.0803079 -2.10983 -0.921093 
199 15.5898 15.1182 6.10281 -0.737078 -0.0697319 -0.0563136 -0.121068 0.880585 0.116965 
21 12.7316 10.1894 6.09552 0.142028 -0.178115 -0.119261 2.3329 0.87932 -0.389569 
37 14.8655 11.4733 6.07712 -0.0931234 0.143964 -0.0431318 -0.276365 1.36577 0.0080802 
54 14.8625 13.8956 6.08964 0.408696 0.120832 0.0158939 1.31411 0.783079 -0.791512 
200 17.7213 13.9674 6.05516 -0.461838 -0.0155127 0.103782 1.3253 -1.09415 0.485281 
55 16.9928 12.7496 6.06841 0.308795 0.0204087 0.0317628 -0.743482 0.733361 0.630073 
40 11.3157 12.5491 6.05324 -0.381299 0.431929 0.0157723 0.245132 0.840439 -1.07028 
52 10.5773 16.1832 6.03512 -0.0264763 0.352972 0.00173106 0.811111 -1.17843 2.24589 
139 7.03516 12.3875 6.09943 0.347816 0.748687 -0.00311531 0.626582 -1.46242 1.20415 
141 9.17195 11.245 6.12183 0.0924608 0.0934833 -0.152446 0.627036 -1.17838 0.786795 
20 10.5909 11.3277 6.08088 -0.0233537 -0.173023 0.0304827 0.580388 0.0379572 0.0936109 
126 6.33143 8.69853 6.08021 -0.303182 0.23183 0.0503959 0.602937 1.14241 -0.774042 
68 9.15458 16.1263 6.04135 0.355851 0.172881 0.0277668 0.808984 0.763996 -0.831651 
135 8.45548 10.0077 6.10444 0.0172741 0.406983 -0.0558257 -0.508023 1.10054 -0.134654 
134 7.03524 9.9419 6.08704 0.334135 0.0443143 0.0362315 1.28042 1.18713 1.13253 
133 6.32888 11.1657 6.09059 -0.590346 -0.812003 0.0417536 0.248541 -1.40227 -2.16453 
8 12.7603 7.77276 6.10335 -0.37915 -0.269274 -0.026216 0.394306 -1.00162 -1.2935 
341 19.0695 23.7108 6.1914 0.171158 0.704438 -0.174318 -0.315021 -0.235614 -0.109299 
324 19.7971 20.0824 6.13012 0.400812 0.133605 0.0781554 0.763767 -0.632376 1.32299 
292 6.32338 23.4272 6.11442 -0.188767 -0.283444 -0.087988 -0.28864 -0.484863 0.782404 
306 19.8241 17.6572 6.11904 -0.0380627 -0.0426009 -0.156653 1.18323 -0.956598 -1.73203 
205 4.90868 20.9252 6.09765 0 0 0 0 0 0 
291 4.90868 23.3852 6.09765 0 0 0 0 0 0 
64 4.90868 18.4652 6.09765 0 0 0 0 0 0 
301 14.8257 21.1875 6.08984 -0.601358 -0.305497 0.0956231 1.63119 0.459054 1.27749 
282 12.7033 19.9111 6.06542 -0.376441 -0.285904 0.0341887 0.111202 -0.259816 0.577151 
311 11.2838 22.3083 6.10033 -0.443568 -0.695204 -0.0257147 0.930738 0.131633 -0.939113 
304 15.5361 19.9738 6.11366 0.315185 0.213042 0.0200874 0.0442578 0.844294 0.194574 
284 16.98 17.5887 6.11189 -0.274842 0.162772 0.103421 -2.10056 1.6434 1.3372 
286 11.285 19.8555 6.07162 0.0682587 0.00645026 -0.0131202 0.0515711 0.12982 -2.96588 
287 13.4205 18.6974 6.08227 -0.107262 0.0544868 -0.0123022 -0.272879 -0.873702 0.729406 
288 15.5649 17.5462 6.13403 -0.120585 0.0466849 -0.110733 1.37292 -1.78523 -0.391103 
330 11.2658 24.753 6.12291 0.270997 -0.52834 0.00816321 -0.302756 -0.984786 -1.88562 
352 17.6622 23.6794 6.14274 -0.417213 -0.18618 -0.013415 0.10855 0.264888 0.711683 
351 15.5259 24.8469 6.14375 -0.0688045 -0.00484539 -0.0522906 -0.779182 -0.44418 1.3759 
348 16.9368 24.8859 6.12412 0.194719 -0.199263 0.187725 1.0069 -1.36722 0.268687 
332 15.5312 22.4054 6.11251 0.297544 0.537725 -0.0553214 -1.52175 1.01844 1.36638 
331 13.405 23.5802 6.11015 -0.365508 -0.207168 0.13205 1.10956 -0.61343 0.636851 
329 14.8151 23.623 6.14052 0.114872 -0.147902 -0.150811 0.199422 0.655956 -1.24598 
323 17.66 21.2551 6.12677 0.306353 -0.53277 -0.0581592 0.230909 -0.0478056 -0.522701 
283 14.8315 18.7512 6.10804 0.182157 -0.142976 -0.00137828 0.857174 0.759437 -0.874225 
321 16.9491 22.4594 6.10309 -0.401912 0.100048 0.127101 -1.28318 0.580953 -0.137138 
312 13.4042 21.1358 6.08392 0.5536 0.11016 0.00308236 0.424596 0.719948 1.32631 
310 12.692 22.3473 6.10872 0.219241 0.359359 -0.0940839 -0.421879 1.94078 0.843286 
192 10.5722 18.6264 6.06188 -0.162802 0.0711459 -0.0568539 0.182321 0.768434 -0.400889 
302 16.9514 20.0261 6.12566 0.123683 -0.161512 0.00586336 3.72308 -0.372022 0.680359 
328 12.6804 24.7936 6.13729 0.3238 0.0336268 -0.105794 -0.402099 -1.14271 -0.0388907 
322 19.0744 21.292 6.14459 0.0978738 -0.0135349 -0.00559181 -0.362444 -0.315434 1.00554 
342 19.7894 22.5129 6.15733 0.188923 -0.395695 0.0559395 0.541592 1.0486 1.41349 
309 10.5639 23.5127 6.10054 0.041203 0.493567 0.0656133 0.664619 -0.976388 -0.182007 
318 7.02667 24.6572 6.09023 0.357861 0.306584 0.0369825 0.650262 1.26282 -0.0774284 
320 9.1498 23.4712 6.11186 -0.0325813 0.312025 -0.12408 -0.938509 -0.350288 -0.246519 
319 8.448 24.7016 6.07506 -0.372999 -0.396266 0.109765 -1.19165 0.305053 2.0608 
361 19.7918 24.9336 6.17964 -0.472844 0.099186 -0.0751764 1.81457 -1.61353 0.0903075 
193 12.7055 17.4724 6.06995 0.195692 -0.0423457 0.0887431 -1.23755 -0.627786 -0.439062 
197 11.2912 17.4144 6.05549 -0.0523987 -0.106527 0.000256028 1.32836 0.220904 -0.0952765 
305 17.6791 18.8131 6.14565 0.0979948 0.327131 -0.110471 -1.80613 -0.491117 1.34533 
371 6.32535 33.2622 6.08073 0.0251633 -0.38901 0.221325 0.230437 -2.08922 -0.338174 
350 13.4051 26.0184 6.14308 -0.561758 0.0853657 -0.0579694 -0.186654 -0.0489587 -1.00272 
337 6.32052 28.347 6.108 0.00493788 -0.537077 0.047448 0.0024325 -0.283248 -1.32534 
338 7.02228 27.1163 6.10419 0.375491 0.163178 0.0174875 2.14917 -0.540899 0.578545 
357 6.31995 30.7924 6.1327 0.369236 0.255151 -0.0849543 -0.394427 -0.306628 -1.37253 
232 16.9355 32.2067 6.12353 0.362178 0.189255 0.012497 1.33432 0.147032 -0.852933 
363 11.266 29.6423 6.11861 0.138013 0.201886 0.179306 -1.34024 0.419458 -0.583415 
210 10.5612 30.8711 6.13911 0.127279 -0.12632 -0.0460572 -0.535528 -0.770068 -2.77188 
237 17.6474 30.99 6.12506 0.296578 -0.245978 -0.0866023 0.419904 1.26303 0.0791353 
389 9.15363 38.1966 6.10868 0.0946667 -0.318538 -0.112648 0.596761 -0.352403 0.260045 
384 7.02749 36.9486 6.08207 0.129409 -0.380719 0.00998779 -1.65896 0.975341 0.524765 
378 6.32629 35.7139 6.09287 -0.191561 0.0897651 -0.0608241 -0.366272 0.634142 1.05827 
274 6.31456 43.0957 6.09131 0.357745 -0.0582551 -0.0136306 0.0219311 -1.20729 -0.0901471 
379 7.03362 34.492 6.08877 -0.0948691 -0.105032 -0.0478702 0.861707 0.504827 1.29878 
787 11.2727 41.9075 6.11469 -0.43983 0.106774 0.0496271 -0.427636 2.05662 -2.21551 
380 8.44498 34.5169 6.06292 -0.0546985 0.0597453 0.129453 1.24485 -0.445519 1.20702 
260 6.32888 40.6235 6.08484 -0.236383 0.311088 0.112117 0.432024 2.06007 -1.01094 
385 8.44336 36.9634 6.08386 -0.182475 0.459269 0.00858447 0.480968 1.18349 2.06779 
275 7.02257 41.8722 6.10547 -0.630221 -0.45521 -0.121224 -1.46094 2.01776 0.730643 
229 10.5618 35.7884 6.09751 0.0403942 -0.69217 -0.175891 -0.363448 1.17119 1.86107 
386 9.14708 35.7475 6.07205 0.245637 -0.0923427 0.0791413 -0.272237 -0.162477 0.870962 
249 11.2803 37.0007 6.08735 -0.383673 0.31232 0.126412 0.329798 -1.53117 0.761388 
388 8.44223 39.4106 6.09555 -0.131045 0.52367 0.00896625 -0.711509 1.34835 0.0200922 
276 8.42221 41.882 6.07714 0.829751 0.0928349 0.095536 1.09632 -1.70056 -1.08389 
370 4.90868 33.2252 6.09765 0 0 0 0 0 0 
317 6.3218 25.8847 6.09287 -0.0926393 -0.202706 0.0383689 0.448938 1.96679 -0.237635 
356 4.90868 30.7652 6.09765 0 0 0 0 0 0 
336 4.90868 28.3052 6.09765 0 0 0 0 0 0 
316 4.90868 25.8452 6.09765 0 0 0 0 0 0 
359 8.44618 29.6025 6.16564 -0.120806 -0.0585154 -0.0838946 -0.405125 -1.80456 -1.02277 
360 9.14875 28.3781 6.14203 -0.0595123 0.134452 0.0435116 1.58261 -0.860993 0.589625 
349 11.2799 27.1959 6.11296 -0.298166 -0.112617 0.156341 0.323899 -0.480871 0.758818 
216 10.5673 33.3238 6.07779 -0.0609297 0.0474807 0.0581421 0.335631 -0.619665 2.22575 
358 7.03203 29.5675 6.13967 -0.0522856 0.33423 -0.029045 -1.25814 0.404378 -2.04644 
373 8.44625 32.0553 6.12297 0.0312344 0.341301 0.0363976 0.69883 0.264184 -0.558084 
340 9.15648 25.9288 6.07394 -0.285159 0.159898 0.170331 -0.0187907 -1.28102 0.909074 
372 7.03361 32.0302 6.13631 -0.408331 -0.0355664 -0.138036 0.584881 -1.43502 -0.710201 
248 19.0649 33.4575 6.11985 0.0284601 -0.0298315 0.0621937 -0.789791 0.892265 -0.601867 
252 17.6522 33.4358 6.13991 -0.180393 -0.472011 -0.0885208 -0.504151 -2.01445 -0.730642 
218 14.8145 30.947 6.13938 0.0931027 0.0879924 -0.0100764 -0.466586 -0.843179 -0.75855 
236 15.5281 32.1769 6.13314 -0.343898 -0.433481 0.000686141 -0.462065 0.851848 -1.17872 
231 14.8109 33.3851 6.12853 -0.295821 0.189783 0.0881747 0.375539 -0.024444 0.298102 
253 19.7779 32.2384 6.12028 0.0137251 0.249155 0.0890718 -0.409683 -0.405904 -1.50163 
235 13.3914 33.3602 6.15254 0.261534 -0.0114957 -0.218196 1.01484 -2.75407 -0.0361753 
345 10.5564 28.41 6.14674 0.463707 0.148033 -0.192931 -0.179649 -1.24655 1.40673 
219 16.9399 29.7578 6.11162 0.0860987 0.279756 0.0464213 1.62266 -0.427382 -0.362023 
212 14.8209 28.5062 6.18396 -0.305868 -0.0245047 -0.223668 -1.36808 -1.20376 0.462363 
223 15.5306 29.7305 6.11422 -0.255191 -0.0239453 0.242266 -0.370833 -0.732205 -1.03522 
224 17.6487 28.5408 6.1319 0.474265 0.162031 -0.00734567 -1.23389 -0.35122 0.465012 
217 12.6919 32.1282 6.14525 -0.217592 0.228796 -0.0109822 -0.124448 1.84853 -0.32133 
374 9.14731 30.8334 6.15266 0.19672 0.0971287 -0.0615663 -0.1285 1.60421 -0.902464 
221 11.2797 32.0996 6.11013 -0.352905 -0.0346614 0.0538672 0.454857 -0.00349898 -1.59275 
327 10.5633 25.9653 6.12121 0.12367 0.390653 -0.125816 -0.601281 0.233461 1.34165 
222 13.399 30.9144 6.16755 0.00985443 -0.357849 -0.130726 -0.518004 -0.853792 -2.0485 
225 19.7889 27.3782 6.14548 -0.45111 -0.166404 -0.0400835 -0.639367 -1.15901 -0.581737 
214 19.0685 26.1522 6.15911 0.359493 -0.270701 0.0516227 0.277608 -0.988905 0.488956 
366 17.6563 26.0926 6.16448 0.0608503 0.78705 -0.151419 1.44296 -0.706517 -1.74565 
364 13.4013 28.468 6.1716 0.151212 -0.0580316 -0.0364964 -1.19126 -0.284904 0.438125 
213 16.9437 27.3119 6.14701 -0.112753 0.0217018 0.0113139 1.43484 0.64845 -2.59613 
381 9.1472 33.2964 6.09378 0.233077 -0.41283 -0.0652188 -0.655685 1.10623 -0.645695 
233 19.0693 31.0193 6.13471 -0.434791 0.112633 0.00297102 -1.53738 0.679854 0.248823 
211 12.6836 29.6833 6.15603 0.0760789 0.11955 -0.0194891 1.68818 1.01404 1.06668 
346 12.6936 27.239 6.14614 -0.0494562 -0.0586952 0.0143179 0.154161 -0.0471371 -0.956651 
347 14.8082 26.062 6.13645 0.508232 -0.0956549 0.129164 1.23737 1.01019 2.17448 
339 8.4448 27.1504 6.1215 -0.37291 -0.20332 -0.151478 -0.508244 -0.0512358 -0.373536 
365 15.5263 27.2851 6.15837 0.134902 -0.0867181 0.0431942 1.09716 0.43945 0.536555 
220 19.0703 28.5949 6.15487 -0.261283 -0.585495 -0.107044 -2.29698 0.387848 0.171228 
238 19.7828 29.8089 6.15503 0.378032 0.1441 0.0242802 -1.57875 -0.050361 1.22381 
230 12.6832 34.5826 6.10064 0.326534 0.209491 0.0673967 -0.388836 -0.317236 -0.953372 
259 4.90868 40.6052 6.09765 0 0 0 0 0 0 
273 4.90868 43.0652 6.09765 0 0 0 0 0 0 
377 4.90868 35.6852 6.09765 0 0 0 0 0 0 
382 4.90868 38.1452 6.09765 0 0 0 0 0 0 
234 11.272 34.5611 6.07268 -0.241193 -0.142809 0.0814555 -1.29731 -0.287965 0.341359 
261 10.5463 40.6866 6.14669 0.154875 -0.0467721 -0.269839 0.787714 -1.39015 -0.490288 
250 13.4008 35.8143 6.10638 -0.474091 -0.417694 0.0416181 0.0282175 1.10873 0.870187 
245 12.6837 37.0298 6.08957 0.419701 0.076433 0.0125479 -1.84077 0.74491 -1.13904 
277 9.1285 40.656 6.09889 0.188193 -0.0613387 0.0243395 -0.806197 -0.432584 0.84745 
266 11.2595 39.465 6.11498 0.0920568 -0.312752 0.187806 -1.56823 -0.37299 -0.426936 
387 7.0272 39.3933 6.08133 0.0633325 0.127937 -0.00748134 0.263212 0.829417 -0.650022 
251 15.5201 34.6059 6.14734 -0.168755 0.430044 -0.0239307 1.79134 1.493 0.0556378 
246 14.8077 35.8288 6.14336 0.27734 -0.136419 -0.0274756 0.931556 -2.65892 -0.802995 
247 16.9293 34.6431 6.15856 0.53224 0.438986 0.027176 -1.34054 -1.25709 -0.0142214 
782 10.561 43.1331 6.10869 0.0841449 -0.275064 -0.12815 -0.538715 1.09857 0.337836 
799 9.14722 43.106 6.07777 -0.14552 -0.00770284 0.0463555 -0.270568 1.0757 1.02748 
269 17.6532 35.8728 6.19427 -0.597365 -0.0912379 -0.0293614 -0.891029 1.04665 0.0540991 