ITEM: TIMESTEP
4400
ITEM: NUMBER OF ATOMS
4798
ITEM: BOX BOUNDS ff ff ff
-10.3577 110.358
-10.0998 131.9
-100.402 112.598
ITEM: ATOMS id x y z fx fy fz vx vy vz 
72 -0.062301 2.4752 6.09765 0 0 0 0 0 0 
110 4.19854 7.39519 6.09765 0 0 0 0 0 0 
109 2.77826 7.39519 6.09765 0 0 0 0 0 0 
93 4.19854 4.9352 6.09765 0 0 0 0 0 0 
92 2.77826 4.9352 6.09765 0 0 0 0 0 0 
91 2.06812 6.16519 6.09765 0 0 0 0 0 0 
87 0.647839 6.16519 6.09765 0 0 0 0 0 0 
86 -0.062301 7.39519 6.09765 0 0 0 0 0 0 
81 4.19854 2.4752 6.09765 0 0 0 0 0 0 
80 2.77826 2.4752 6.09765 0 0 0 0 0 0 
79 2.06812 3.7052 6.09765 0 0 0 0 0 0 
78 0.647839 3.7052 6.09765 0 0 0 0 0 0 
77 -0.062301 4.9352 6.09765 0 0 0 0 0 0 
76 4.19854 0.015197 6.09765 0 0 0 0 0 0 
75 2.77826 0.015197 6.09765 0 0 0 0 0 0 
74 2.06812 1.2452 6.09765 0 0 0 0 0 0 
73 0.647839 1.2452 6.09765 0 0 0 0 0 0 
6 -0.062301 12.3152 6.09765 0 0 0 0 0 0 
131 4.19854 12.3152 6.09765 0 0 0 0 0 0 
130 2.77826 12.3152 6.09765 0 0 0 0 0 0 
124 4.19854 9.85519 6.09765 0 0 0 0 0 0 
123 2.77826 9.85519 6.09765 0 0 0 0 0 0 
122 2.06812 11.0852 6.09765 0 0 0 0 0 0 
117 0.647839 11.0852 6.09765 0 0 0 0 0 0 
108 2.06812 8.62519 6.09765 0 0 0 0 0 0 
100 0.647839 8.62519 6.09765 0 0 0 0 0 0 
99 -0.062301 9.85519 6.09765 0 0 0 0 0 0 
34 4.19854 14.7752 6.09765 0 0 0 0 0 0 
33 2.77826 14.7752 6.09765 0 0 0 0 0 0 
32 2.06812 16.0052 6.09765 0 0 0 0 0 0 
31 0.647839 16.0052 6.09765 0 0 0 0 0 0 
19 2.06812 13.5452 6.09765 0 0 0 0 0 0 
18 0.647839 13.5452 6.09765 0 0 0 0 0 0 
17 -0.062301 14.7752 6.09765 0 0 0 0 0 0 
300 4.19854 24.6152 6.09765 0 0 0 0 0 0 
299 2.77826 24.6152 6.09765 0 0 0 0 0 0 
204 4.19854 22.1552 6.09765 0 0 0 0 0 0 
203 2.77826 22.1552 6.09765 0 0 0 0 0 0 
202 2.06812 23.3852 6.09765 0 0 0 0 0 0 
191 0.647839 23.3852 6.09765 0 0 0 0 0 0 
190 -0.062301 24.6152 6.09765 0 0 0 0 0 0 
71 2.06812 20.9252 6.09765 0 0 0 0 0 0 
70 0.647839 20.9252 6.09765 0 0 0 0 0 0 
69 -0.062301 22.1552 6.09765 0 0 0 0 0 0 
63 4.19854 19.6952 6.09765 0 0 0 0 0 0 
62 2.77826 19.6952 6.09765 0 0 0 0 0 0 
49 4.19854 17.2352 6.09765 0 0 0 0 0 0 
48 2.77826 17.2352 6.09765 0 0 0 0 0 0 
47 2.06812 18.4652 6.09765 0 0 0 0 0 0 
46 0.647839 18.4652 6.09765 0 0 0 0 0 0 
45 -0.062301 19.6952 6.09765 0 0 0 0 0 0 
30 -0.062301 17.2352 6.09765 0 0 0 0 0 0 
355 4.19854 31.9952 6.09765 0 0 0 0 0 0 
354 2.77826 31.9952 6.09765 0 0 0 0 0 0 
353 2.06812 33.2252 6.09765 0 0 0 0 0 0 
344 0.647839 33.2252 6.09765 0 0 0 0 0 0 
335 4.19854 29.5352 6.09765 0 0 0 0 0 0 
334 2.77826 29.5352 6.09765 0 0 0 0 0 0 
333 2.06812 30.7652 6.09765 0 0 0 0 0 0 
326 0.647839 30.7652 6.09765 0 0 0 0 0 0 
325 -0.062301 31.9952 6.09765 0 0 0 0 0 0 
315 4.19854 27.0752 6.09765 0 0 0 0 0 0 
314 2.77826 27.0752 6.09765 0 0 0 0 0 0 
313 2.06812 28.3052 6.09765 0 0 0 0 0 0 
308 0.647839 28.3052 6.09765 0 0 0 0 0 0 
307 -0.062301 29.5352 6.09765 0 0 0 0 0 0 
298 2.06812 25.8452 6.09765 0 0 0 0 0 0 
297 0.647839 25.8452 6.09765 0 0 0 0 0 0 
296 -0.062301 27.0752 6.09765 0 0 0 0 0 0 
215 -0.062301 36.9152 6.09765 0 0 0 0 0 0 
376 4.19854 36.9152 6.09765 0 0 0 0 0 0 
375 2.77826 36.9152 6.09765 0 0 0 0 0 0 
369 4.19854 34.4552 6.09765 0 0 0 0 0 0 
368 2.77826 34.4552 6.09765 0 0 0 0 0 0 
367 2.06812 35.6852 6.09765 0 0 0 0 0 0 
362 0.647839 35.6852 6.09765 0 0 0 0 0 0 
343 -0.062301 34.4552 6.09765 0 0 0 0 0 0 
258 4.19854 41.8352 6.09765 0 0 0 0 0 0 
257 2.77826 41.8352 6.09765 0 0 0 0 0 0 
256 2.06812 43.0652 6.09765 0 0 0 0 0 0 
255 0.647839 43.0652 6.09765 0 0 0 0 0 0 
243 4.19854 39.3752 6.09765 0 0 0 0 0 0 
242 2.77826 39.3752 6.09765 0 0 0 0 0 0 
241 2.06812 40.6052 6.09765 0 0 0 0 0 0 
240 0.647839 40.6052 6.09765 0 0 0 0 0 0 
239 -0.062301 41.8352 6.09765 0 0 0 0 0 0 
228 2.06812 38.1452 6.09765 0 0 0 0 0 0 
227 0.647839 38.1452 6.09765 0 0 0 0 0 0 
226 -0.062301 39.3752 6.09765 0 0 0 0 0 0 
254 -0.062301 44.2952 6.09765 0 0 0 0 0 0 
905 4.19854 51.6752 6.09765 0 0 0 0 0 0 
904 2.77826 51.6752 6.09765 0 0 0 0 0 0 
890 4.19854 49.2152 6.09765 0 0 0 0 0 0 
889 2.77826 49.2152 6.09765 0 0 0 0 0 0 
888 2.06812 50.4452 6.09765 0 0 0 0 0 0 
887 0.647839 50.4452 6.09765 0 0 0 0 0 0 
886 -0.062301 51.6752 6.09765 0 0 0 0 0 0 
794 4.19854 46.7552 6.09765 0 0 0 0 0 0 
793 2.77826 46.7552 6.09765 0 0 0 0 0 0 
792 2.06812 47.9852 6.09765 0 0 0 0 0 0 
781 0.647839 47.9852 6.09765 0 0 0 0 0 0 
780 -0.062301 49.2152 6.09765 0 0 0 0 0 0 
280 2.06812 45.5252 6.09765 0 0 0 0 0 0 
279 0.647839 45.5252 6.09765 0 0 0 0 0 0 
278 -0.062301 46.7552 6.09765 0 0 0 0 0 0 
272 4.19854 44.2952 6.09765 0 0 0 0 0 0 
271 2.77826 44.2952 6.09765 0 0 0 0 0 0 
959 4.19854 59.0552 6.09765 0 0 0 0 0 0 
958 2.77826 59.0552 6.09765 0 0 0 0 0 0 
957 2.06812 60.2852 6.09765 0 0 0 0 0 0 
952 0.647839 60.2852 6.09765 0 0 0 0 0 0 
945 4.19854 56.5952 6.09765 0 0 0 0 0 0 
944 2.77826 56.5952 6.09765 0 0 0 0 0 0 
943 2.06812 57.8252 6.09765 0 0 0 0 0 0 
934 0.647839 57.8252 6.09765 0 0 0 0 0 0 
933 -0.062301 59.0552 6.09765 0 0 0 0 0 0 
925 4.19854 54.1352 6.09765 0 0 0 0 0 0 
924 2.77826 54.1352 6.09765 0 0 0 0 0 0 
923 2.06812 55.3652 6.09765 0 0 0 0 0 0 
916 0.647839 55.3652 6.09765 0 0 0 0 0 0 
915 -0.062301 56.5952 6.09765 0 0 0 0 0 0 
903 2.06812 52.9052 6.09765 0 0 0 0 0 0 
898 0.647839 52.9052 6.09765 0 0 0 0 0 0 
897 -0.062301 54.1352 6.09765 0 0 0 0 0 0 
805 -0.062301 61.5152 6.09765 0 0 0 0 0 0 
966 4.19854 61.5152 6.09765 0 0 0 0 0 0 
965 2.77826 61.5152 6.09765 0 0 0 0 0 0 
862 4.19854 68.8952 6.09765 0 0 0 0 0 0 
861 2.77826 68.8952 6.09765 0 0 0 0 0 0 
848 4.19854 66.4352 6.09765 0 0 0 0 0 0 
847 2.77826 66.4352 6.09765 0 0 0 0 0 0 
846 2.06812 67.6652 6.09765 0 0 0 0 0 0 
845 0.647839 67.6652 6.09765 0 0 0 0 0 0 
844 -0.062301 68.8952 6.09765 0 0 0 0 0 0 
833 4.19854 63.9752 6.09765 0 0 0 0 0 0 
832 2.77826 63.9752 6.09765 0 0 0 0 0 0 
831 2.06812 65.2052 6.09765 0 0 0 0 0 0 
830 0.647839 65.2052 6.09765 0 0 0 0 0 0 
829 -0.062301 66.4352 6.09765 0 0 0 0 0 0 
818 2.06812 62.7452 6.09765 0 0 0 0 0 0 
817 0.647839 62.7452 6.09765 0 0 0 0 0 0 
816 -0.062301 63.9752 6.09765 0 0 0 0 0 0 
1828 4.19854 76.2752 6.09765 0 0 0 0 0 0 
1827 2.77826 76.2752 6.09765 0 0 0 0 0 0 
1826 2.06812 77.5052 6.09765 0 0 0 0 0 0 
1821 0.647839 77.5052 6.09765 0 0 0 0 0 0 
1813 4.19854 73.8152 6.09765 0 0 0 0 0 0 
1812 2.77826 73.8152 6.09765 0 0 0 0 0 0 
1811 2.06812 75.0452 6.09765 0 0 0 0 0 0 
1810 0.647839 75.0452 6.09765 0 0 0 0 0 0 
1809 -0.062301 76.2752 6.09765 0 0 0 0 0 0 
1717 4.19854 71.3552 6.09765 0 0 0 0 0 0 
1716 2.77826 71.3552 6.09765 0 0 0 0 0 0 
1715 2.06812 72.5852 6.09765 0 0 0 0 0 0 
1704 0.647839 72.5852 6.09765 0 0 0 0 0 0 
1703 -0.062301 73.8152 6.09765 0 0 0 0 0 0 
870 2.06812 70.1252 6.09765 0 0 0 0 0 0 
869 0.647839 70.1252 6.09765 0 0 0 0 0 0 
868 -0.062301 71.3552 6.09765 0 0 0 0 0 0 
1728 -0.062301 86.1152 6.09765 0 0 0 0 0 0 
1889 4.19854 86.1152 6.09765 0 0 0 0 0 0 
1888 2.77826 86.1152 6.09765 0 0 0 0 0 0 
1882 4.19854 83.6552 6.09765 0 0 0 0 0 0 
1881 2.77826 83.6552 6.09765 0 0 0 0 0 0 
1880 2.06812 84.8852 6.09765 0 0 0 0 0 0 
1875 0.647839 84.8852 6.09765 0 0 0 0 0 0 
1868 4.19854 81.1952 6.09765 0 0 0 0 0 0 
1867 2.77826 81.1952 6.09765 0 0 0 0 0 0 
1866 2.06812 82.4252 6.09765 0 0 0 0 0 0 
1857 0.647839 82.4252 6.09765 0 0 0 0 0 0 
1856 -0.062301 83.6552 6.09765 0 0 0 0 0 0 
1848 4.19854 78.7352 6.09765 0 0 0 0 0 0 
1847 2.77826 78.7352 6.09765 0 0 0 0 0 0 
1846 2.06812 79.9652 6.09765 0 0 0 0 0 0 
1839 0.647839 79.9652 6.09765 0 0 0 0 0 0 
1838 -0.062301 81.1952 6.09765 0 0 0 0 0 0 
1820 -0.062301 78.7352 6.09765 0 0 0 0 0 0 
1741 2.06812 87.3452 6.09765 0 0 0 0 0 0 
1740 0.647839 87.3452 6.09765 0 0 0 0 0 0 
2677 4.19854 95.9552 6.09765 0 0 0 0 0 0 
2676 2.77826 95.9552 6.09765 0 0 0 0 0 0 
1793 2.06812 94.7252 6.09765 0 0 0 0 0 0 
1792 0.647839 94.7252 6.09765 0 0 0 0 0 0 
1791 -0.062301 95.9552 6.09765 0 0 0 0 0 0 
1785 4.19854 93.4952 6.09765 0 0 0 0 0 0 
1784 2.77826 93.4952 6.09765 0 0 0 0 0 0 
1771 4.19854 91.0352 6.09765 0 0 0 0 0 0 
1770 2.77826 91.0352 6.09765 0 0 0 0 0 0 
1769 2.06812 92.2652 6.09765 0 0 0 0 0 0 
1768 0.647839 92.2652 6.09765 0 0 0 0 0 0 
1767 -0.062301 93.4952 6.09765 0 0 0 0 0 0 
1756 4.19854 88.5752 6.09765 0 0 0 0 0 0 
1755 2.77826 88.5752 6.09765 0 0 0 0 0 0 
1754 2.06812 89.8052 6.09765 0 0 0 0 0 0 
1753 0.647839 89.8052 6.09765 0 0 0 0 0 0 
1752 -0.062301 91.0352 6.09765 0 0 0 0 0 0 
1739 -0.062301 88.5752 6.09765 0 0 0 0 0 0 
2663 -0.062301 98.4152 6.09765 0 0 0 0 0 0 
2808 4.19854 103.335 6.09765 0 0 0 0 0 0 
2807 2.77826 103.335 6.09765 0 0 0 0 0 0 
2806 2.06812 104.565 6.09765 0 0 0 0 0 0 
2799 0.647839 104.565 6.09765 0 0 0 0 0 0 
2788 4.19854 100.875 6.09765 0 0 0 0 0 0 
2787 2.77826 100.875 6.09765 0 0 0 0 0 0 
2786 2.06812 102.105 6.09765 0 0 0 0 0 0 
2781 0.647839 102.105 6.09765 0 0 0 0 0 0 
2780 -0.062301 103.335 6.09765 0 0 0 0 0 0 
2773 4.19854 98.4152 6.09765 0 0 0 0 0 0 
2772 2.77826 98.4152 6.09765 0 0 0 0 0 0 
2771 2.06812 99.6452 6.09765 0 0 0 0 0 0 
2770 0.647839 99.6452 6.09765 0 0 0 0 0 0 
2769 -0.062301 100.875 6.09765 0 0 0 0 0 0 
2675 2.06812 97.1852 6.09765 0 0 0 0 0 0 
2664 0.647839 97.1852 6.09765 0 0 0 0 0 0 
2849 4.19854 110.715 6.09765 0 0 0 0 0 0 
2848 2.77826 110.715 6.09765 0 0 0 0 0 0 
2842 4.19854 108.255 6.09765 0 0 0 0 0 0 
2841 2.77826 108.255 6.09765 0 0 0 0 0 0 
2840 2.06812 109.485 6.09765 0 0 0 0 0 0 
2835 0.647839 109.485 6.09765 0 0 0 0 0 0 
2828 4.19854 105.795 6.09765 0 0 0 0 0 0 
2827 2.77826 105.795 6.09765 0 0 0 0 0 0 
2826 2.06812 107.025 6.09765 0 0 0 0 0 0 
2817 0.647839 107.025 6.09765 0 0 0 0 0 0 
2816 -0.062301 108.255 6.09765 0 0 0 0 0 0 
2798 -0.062301 105.795 6.09765 0 0 0 0 0 0 
2716 4.19854 113.175 6.09765 0 0 0 0 0 0 
2715 2.77826 113.175 6.09765 0 0 0 0 0 0 
2701 2.06812 111.945 6.09765 0 0 0 0 0 0 
2700 0.647839 111.945 6.09765 0 0 0 0 0 0 
2699 -0.062301 113.175 6.09765 0 0 0 0 0 0 
2688 -0.062301 110.715 6.09765 0 0 0 0 0 0 
2712 -0.062301 115.635 6.09765 0 0 0 0 0 0 
3636 4.19854 120.555 6.09765 0 0 0 0 0 0 
3635 2.77826 120.555 6.09765 0 0 0 0 0 0 
3634 2.06812 121.785 6.09765 0 0 0 0 0 0 
3623 0.647839 121.785 6.09765 0 0 0 0 0 0 
2753 2.06812 119.325 6.09765 0 0 0 0 0 0 
2752 0.647839 119.325 6.09765 0 0 0 0 0 0 
2751 -0.062301 120.555 6.09765 0 0 0 0 0 0 
2745 4.19854 118.095 6.09765 0 0 0 0 0 0 
2744 2.77826 118.095 6.09765 0 0 0 0 0 0 
2731 4.19854 115.635 6.09765 0 0 0 0 0 0 
2730 2.77826 115.635 6.09765 0 0 0 0 0 0 
2729 2.06812 116.865 6.09765 0 0 0 0 0 0 
2728 0.647839 116.865 6.09765 0 0 0 0 0 0 
2727 -0.062301 118.095 6.09765 0 0 0 0 0 0 
2714 2.06812 114.405 6.09765 0 0 0 0 0 0 
2713 0.647839 114.405 6.09765 0 0 0 0 0 0 
95 6.32775 3.80222 6.09543 0.48972 0.0207197 0.111309 -1.14023 0.779314 -0.40211 
90 11.5084 0.480204 5.96857 0.183491 -0.00583655 0.0829591 -0.0379852 0.127801 1.21485 
96 7.06548 2.59923 6.13989 0.418054 0.424007 0.0171897 -0.415722 0.596163 0.966901 
104 17.1952 0.688195 6.06677 -0.576885 -0.359288 -0.0605103 1.21528 0.325785 1.4804 
85 8.53392 0.330235 6.34238 0.288144 -0.0266377 0.0521126 -1.6678 -0.368748 0.745188 
83 6.34414 1.36542 6.1306 -0.355335 -0.728801 0.0163499 1.05459 0.373384 0.0871514 
112 6.32676 6.24724 6.06449 0.344142 -0.081091 0.159169 0.374012 0.965105 -0.767877 
84 7.1775 0.20988 6.13375 -0.160994 0.411104 -0.0165099 -0.0397949 -0.035507 -2.6043 
88 10.6852 1.61569 6.14782 0.219426 -0.316515 -0.167069 0.373761 0.796001 -0.613165 
98 9.28454 1.52151 6.22509 0.1566 -0.310349 0.0426807 0.0669474 0.507513 -0.865854 
127 7.04599 7.48761 6.06239 0.35169 -0.101854 0.0668997 -0.0731167 0.351208 1.17288 
128 8.47575 7.56791 6.07714 -0.466966 -0.159624 -0.00621888 -0.297232 1.03085 -1.87917 
97 8.50888 2.69914 6.20062 0.0231538 0.645933 -0.107339 -2.2534 2.06582 -1.74945 
113 7.06296 5.03489 6.1087 -0.411302 0.26855 -0.10749 -0.218397 0.837776 -0.493497 
94 4.90868 3.7052 6.09765 0 0 0 0 0 0 
111 4.90868 6.16519 6.09765 0 0 0 0 0 0 
82 4.90868 1.2452 6.09765 0 0 0 0 0 0 
4 17.1322 3.0598 6.22768 -0.146777 0.292897 -0.0965675 2.52321 1.23195 -0.91937 
5 19.2827 1.92508 6.40936 0.201686 0.148278 -0.0163415 -1.09518 -0.39688 -2.63409 
89 12.8716 0.513676 6.19138 -0.248582 0.102875 -0.0258518 0.154584 -0.0977179 -0.952342 
118 11.3682 5.25838 6.16554 -0.305562 -0.290743 -0.0501607 -0.690765 -0.84051 -0.502861 
119 13.5362 4.13259 6.19972 -0.203161 -0.142205 -0.0784321 1.69669 0.974373 -1.12281 
28 17.7606 6.70837 6.23239 0.119808 0.654488 -0.0579567 0.129427 -0.0708657 -0.177793 
106 13.6118 1.71557 6.16903 -0.266869 0.0706759 0.0445109 -0.534287 -0.726719 0.357307 
102 12.8339 2.90215 6.19307 0.151592 0.181188 -0.00648099 0.0486468 -1.8015 0.227183 
120 15.7016 3.0174 6.20165 0.122871 -0.488904 -0.00707829 0.269079 1.71743 0.065383 
115 9.22616 3.93445 6.18928 -0.353562 0.243303 -0.0473962 -0.305156 -0.238244 -0.626465 
9 14.9165 6.6146 6.20573 -0.517393 -0.361779 -0.104274 0.412096 -0.722746 -1.20393 
10 17.0657 5.49054 6.22037 0.194808 -0.692381 0.025368 -0.22679 0.443937 -0.436205 
24 19.1744 6.77089 6.24864 0.275125 -0.494498 0.00738212 0.858591 -0.0133796 -0.380304 
129 9.20737 6.35929 6.12049 -0.36686 0.350545 -0.0417212 0.677666 -0.73002 -0.560693 
101 10.646 4.0307 6.18261 0.351764 0.164124 -0.0466001 1.65325 0.360893 -1.07276 
1 10.6199 6.4505 6.12589 0.402808 0.0145741 0.0580718 1.04568 0.366755 0.19884 
13 13.4955 6.5465 6.17085 0.187974 0.0714033 -0.00025161 1.62036 -0.0792144 1.42971 
2 12.7892 5.32226 6.16504 -0.150955 0.119029 0.0766381 -0.730503 -2.20443 -0.840085 
11 19.2271 4.35539 6.2594 0.177178 -0.749251 0.105943 0.534718 -0.909502 1.78844 
105 11.3986 2.84339 6.16779 0.0526338 0.0531554 0.125352 -1.43305 -0.0505948 1.86534 
14 15.6565 5.41836 6.23314 -0.185189 0.279497 -0.0830772 0.496152 1.7411 -1.54735 
15 17.8189 4.29201 6.21026 -0.388213 0.341599 0.17329 -0.428526 -0.11101 -0.673094 
3 14.9502 4.20192 6.21111 0.0970671 -0.068226 0.0486115 -1.14143 0.222354 -0.175782 
114 8.48104 5.1381 6.14364 0.193318 -0.519423 -0.0403869 -0.438673 0.248504 -1.12361 
107 15.8207 0.631749 6.14077 0.271155 -0.109741 0.0121478 1.03564 -0.310058 -0.55627 
103 15.0055 1.77836 6.15238 0.131554 0.286727 0.0308619 -1.32321 -0.839808 -0.184013 
121 17.9034 1.87738 6.25163 0.0677717 0.326678 -0.0368278 0.00337495 -0.369711 -1.3846 
192 10.5723 18.6325 6.11618 -0.04266 -0.0247583 -0.0137155 -0.379181 -0.951856 -1.06737 
20 10.5895 11.3105 6.10705 -0.281916 0.17138 0.00177313 -1.06104 -0.765234 0.923111 
302 16.9492 20.0295 6.12739 0.17557 0.0270927 0.11161 -0.705785 0.268664 0.796686 
209 9.15757 18.5826 6.13296 -0.129367 -0.0951068 0.0596864 0.775626 -0.780788 -1.28653 
68 9.16267 16.1396 6.12657 -0.0886967 -0.217673 -0.0684775 0.0873595 2.38627 -0.00891112 
281 10.5713 21.0822 6.09528 -0.437221 -0.464585 0.0649124 1.42922 -0.0934385 1.26698 
144 9.16398 13.6981 6.07951 -0.0676369 -0.43989 0.110815 -0.581745 1.82074 0.210217 
328 12.6851 24.8092 6.10382 0.31039 -0.181767 -0.0395736 0.186315 -1.32493 0.332362 
206 6.31632 20.9657 6.1262 0.319679 0.372369 -0.0334803 0.814343 1.58432 -0.868014 
134 7.03897 9.93462 6.09472 0.282208 0.254674 0.123619 -0.730442 -0.381139 -0.0624835 
133 6.32598 11.1545 6.11707 -0.0943491 -0.0779231 -0.110413 -1.17797 -0.686186 -0.430128 
322 19.0725 21.3137 6.17482 0.111402 -0.794957 0.0046424 -1.33073 -2.04341 -0.944764 
309 10.5506 23.5252 6.09714 0.707808 -0.108636 -0.0151783 1.54355 -1.0914 0.901136 
319 8.43224 24.7096 6.09523 0.194479 -0.310116 0.034517 0.299243 2.02835 -1.77943 
293 7.02687 22.2077 6.10448 -0.266421 -0.334341 0.03109 0.271612 0.676233 0.828415 
67 8.44232 17.351 6.14914 0.293602 0.14015 -0.108049 -1.04897 0.101294 0.390196 
193 12.7025 17.4733 6.11058 -0.0201567 0.457491 -0.048953 -2.20392 -0.960426 -0.232885 
197 11.2857 17.4122 6.09371 0.194154 0.389555 0.0177301 0.190354 1.27765 -1.69502 
305 17.6691 18.8155 6.15344 0.0392791 0.40523 -0.127727 -0.212836 0.432785 0.237189 
66 7.03209 17.2986 6.13184 -0.042749 -0.0156132 0.0355914 0.860692 0.22006 -1.69357 
208 8.43775 19.798 6.13255 0.250636 -0.136713 0.0392425 -2.53101 0.390118 0.483392 
361 19.7768 24.9487 6.12319 0.0258372 -0.036195 -0.0295324 0.0496814 -0.213309 -1.19539 
7 10.6017 8.8818 6.10753 -0.067712 -0.172931 -0.0825909 -0.14041 0.7358 -1.49847 
320 9.14399 23.4843 6.0879 -0.301972 -0.002345 0.0208522 0.0659711 0.0928769 -1.0452 
318 7.02156 24.6632 6.10747 0.146082 0.0506927 -0.106759 0.547582 0.201878 0.653348 
8 12.7599 7.74558 6.14485 -0.3902 -0.17227 -0.0963233 2.36801 0.693788 -0.512766 
12 11.3341 7.6802 6.12839 0.222624 -0.133428 -0.0576279 0.709706 -1.44983 -1.52983 
342 19.7837 22.5301 6.19888 0.390731 -0.191857 -0.145389 0.652245 0.191787 0.447289 
294 8.43634 22.2474 6.09756 0.283459 -0.00399017 -0.052262 0.983213 0.0653419 1.86406 
65 6.31834 18.515 6.13701 0.0916207 -0.0133229 -0.0569674 -0.769538 2.11015 0.561494 
207 7.02706 19.7465 6.15065 -0.0828452 0.0545335 -0.0796094 0.513011 0.990276 1.1538 
135 8.46201 10.0146 6.1073 -0.289559 -0.156829 -0.182652 -0.828764 0.68009 -1.58586 
136 9.1847 8.80129 6.06781 0.190622 0.265564 0.167498 0.558984 0.703894 -0.382594 
25 11.3116 10.1072 6.10285 0.0455518 -0.115181 0.0906405 -1.15189 -0.740791 0.734559 
295 9.15161 21.023 6.10417 0.0519452 0.47154 0.0460619 0.946462 -1.47249 -1.45481 
126 6.32215 8.70124 6.09919 0.238849 -0.160737 -0.0901804 0.655312 0.0340974 -0.84624 
51 6.32651 16.0659 6.11183 -0.26946 -0.166318 -0.0612316 -0.780627 -0.593207 -0.258691 
137 4.90868 13.5452 6.09765 0 0 0 0 0 0 
132 4.90868 11.0852 6.09765 0 0 0 0 0 0 
125 4.90868 8.62519 6.09765 0 0 0 0 0 0 
50 4.90868 16.0052 6.09765 0 0 0 0 0 0 
198 13.421 16.2675 6.12042 -0.026266 -0.263269 0.0499555 0.273306 1.40682 -1.42269 
341 19.0591 23.7304 6.14971 0.367258 0.255522 0.0831285 -0.629232 -1.05821 -0.170026 
60 17.7124 11.5454 6.11513 0.227512 0.259783 0.00914841 -0.309288 -1.29494 0.285795 
59 15.572 12.6863 6.09834 -0.0699822 0.194191 -0.0670353 -0.686507 0.452939 0.948475 
324 19.7936 20.0923 6.17104 -0.182973 0.297065 -0.0295785 0.656764 -0.795737 -0.845267 
58 13.4215 13.8308 6.11663 0.354832 0.0446827 -0.0173815 -0.728614 -0.135849 -1.12951 
56 19.127 11.5995 6.14802 -0.0396449 -0.276414 0.00551478 -1.15475 -0.422889 -0.742448 
138 6.3206 13.6126 6.08776 0.167204 -0.123322 0.0849993 0.154487 0.604171 -0.692259 
194 14.8327 16.3213 6.12732 0.310536 0.175543 0.11465 1.70947 -1.1528 0.688752 
53 12.704 15.0422 6.1214 0.0200729 -0.130734 -0.067288 1.18381 -0.999 1.63515 
195 16.9757 15.182 6.12761 0.0503919 -0.202744 -0.0539532 -0.54397 0.745356 -0.359453 
43 17.7363 9.12981 6.175 0.206664 -0.0639993 0.0316992 -0.758798 1.28285 0.544999 
42 15.5971 10.2571 6.11696 -0.122344 0.0362062 -0.016066 1.18333 1.90844 0.488243 
196 19.1106 14.0239 6.15899 0.0678361 0.0514517 -0.00572633 -0.236562 -0.79464 -0.266762 
39 19.1552 9.17879 6.21863 -0.116783 -0.101969 -0.147338 -0.730008 -0.652572 0.3405 
285 19.1087 16.4538 6.16715 -0.355446 -0.525771 0.0065589 0.653514 -0.119773 -0.725884 
38 17.0073 10.3299 6.13186 0.00121921 -0.3183 0.0352293 1.40597 -1.74455 0.455339 
26 13.4653 8.96706 6.11501 -0.00265467 0.417743 0.185152 -1.19388 0.0532083 -0.248135 
22 14.8839 9.03562 6.14366 -0.287064 0.017666 -0.118284 -0.533093 0.963153 -1.16581 
303 19.0808 18.8687 6.14531 0.11673 0.291473 0.185197 -0.123099 -1.97856 0.884099 
306 19.8078 17.6699 6.17233 0.706292 0.0705244 -0.193398 -1.06492 0.490307 -0.516554 
23 17.0231 7.91371 6.18063 0.166394 -0.596093 0.120776 -1.23173 0.490291 0.385292 
27 15.6084 7.83269 6.17538 0.521823 0.605271 -0.0328415 1.51828 0.325063 -0.775893 
289 17.6949 16.3952 6.14615 -0.215914 0.135704 0.0540372 -0.0515217 0.602908 0.48724 
57 11.2927 14.9745 6.10293 -0.0760658 -0.00390618 -0.120115 0.482244 -1.1414 1.24781 
41 13.4373 11.3985 6.12075 0.514976 -0.225838 -0.0987784 -1.02479 -0.850932 0.369215 
205 4.90868 20.9252 6.09765 0 0 0 0 0 0 
291 4.90868 23.3852 6.09765 0 0 0 0 0 0 
199 15.5662 15.1159 6.12409 -0.497411 0.123198 -0.0188585 -0.520856 -0.680812 1.38978 
21 12.7233 10.1687 6.1245 0.508766 0.0281032 -0.0602327 0.984138 0.921972 -0.157745 
64 4.90868 18.4652 6.09765 0 0 0 0 0 0 
36 12.7094 12.6015 6.10402 0.163306 0.186655 0.0379339 -0.446894 -1.15757 0.630995 
37 14.8692 11.4588 6.09189 -0.827802 0.0584231 0.115565 -0.831715 -0.162246 0.296081 
54 14.8439 13.8946 6.10268 -0.101413 -0.172501 0.0489923 -0.567423 0.961166 0.73223 
200 17.6962 13.9798 6.1168 0.105312 -0.5234 0.0856424 -0.644866 0.697395 -1.64329 
55 16.985 12.7501 6.10131 0.124697 0.179458 -0.00272788 -0.89336 -1.24938 -0.193139 
142 7.03535 14.8473 6.09485 0.198287 -0.0819278 0.0224805 -0.0130962 0.893099 1.37981 
311 11.2744 22.3071 6.0962 0.119011 0.460193 0.0412207 -0.261968 -0.294434 0.773677 
143 8.45361 14.9063 6.11001 -0.350291 0.182406 -0.121219 0.106757 0.760073 -0.768522 
40 11.2956 12.538 6.1035 0.0327557 0.0837893 -0.0782584 0.461465 -0.0520109 0.672148 
52 10.5762 16.1846 6.08107 -0.182921 0.19852 0.166299 1.38789 0.575641 -0.144342 
140 8.45178 12.4621 6.08268 0.0256418 0.152915 0.024676 0.710267 0.156212 -1.88982 
286 11.285 19.8642 6.11037 -0.21638 0.0401065 -0.0385897 1.46966 -0.640686 0.873075 
287 13.4131 18.7139 6.11383 0.0715417 -0.524371 0.0648218 -0.973751 -0.72963 -0.729005 
288 15.5462 17.5503 6.16804 0.0803212 -0.262411 -0.171418 1.43799 0.6895 -0.365924 
330 11.278 24.7482 6.10059 -0.633217 0.359549 0.0390204 -1.83578 1.72602 -0.198129 
139 7.03686 12.395 6.09642 -0.051607 -0.105375 -0.0572694 1.54605 -0.661918 -0.744185 
141 9.17276 11.2531 6.09627 -0.00297748 -0.310926 0.0270737 -1.97964 -0.630837 -0.0895623 
352 17.6526 23.6906 6.14891 -0.28763 -0.0923136 -0.0742276 -0.254584 0.924763 0.0463514 
351 15.515 24.8645 6.13714 0.478914 0.170744 -0.108875 -0.357327 0.769682 -1.1332 
348 16.9319 24.9003 6.1198 -0.0481046 0.21655 0.144175 0.791068 0.282033 1.83351 
332 15.5318 22.4188 6.14002 -0.354583 0.244368 0.0229557 -0.337317 0.334875 0.191383 
331 13.4064 23.5929 6.09652 -0.291429 0.0228671 0.099732 0.243064 1.18469 0.314538 
329 14.8153 23.6436 6.12038 0.00596716 -0.6862 0.0406513 0.532621 1.74789 -1.94321 
323 17.6608 21.2581 6.14474 0.0108078 -0.233066 0.0205439 -0.163672 0.262106 0.577223 
35 10.5739 13.7479 6.0815 0.280832 0.054535 0.0829518 -0.816163 2.37578 2.839 
321 16.9422 22.4642 6.14984 -0.0229783 0.172251 -0.0427275 -1.43061 -0.819099 0.522245 
312 13.3981 21.1481 6.13029 0.530115 -0.098472 0.0357995 -0.602281 0.140636 0.305623 
310 12.6942 22.3619 6.11864 -0.391824 0.262658 -0.0828617 -1.88611 -0.69687 0.664855 
283 14.8318 18.7609 6.13299 -0.303059 0.00372226 0.0583532 0.179216 -0.387508 -0.607556 
284 16.9632 17.5959 6.1534 -0.0906014 -0.0152868 0.0627027 0.0381679 0.122933 -0.208888 
304 15.5372 19.9861 6.12847 0.0467598 -0.161738 0.0251748 0.553307 -1.39387 0.101999 
282 12.6931 19.9223 6.12212 0.094582 -0.127754 -0.00350934 -0.242958 -0.490609 0.990131 
301 14.8161 21.1905 6.14531 -0.0628561 0.354304 -0.0642157 0.123867 0.18685 -0.953933 
292 6.32067 23.4304 6.09713 -0.0224795 -0.0876898 0.0626097 0.420909 -0.192456 -0.665162 
389 9.15371 38.2109 6.1203 -0.113406 -0.00106175 0.072674 -1.33683 1.07732 -1.02855 
384 7.02945 36.9531 6.10428 -0.00156408 -0.192241 -0.0193995 -0.496738 1.13297 -1.54188 
378 6.32454 35.7148 6.09586 -0.0136612 0.191392 0.0372826 -0.179905 -1.14143 1.05361 
274 6.31971 43.0804 6.08509 0.114439 -0.17411 0.0350702 1.41022 2.057 -0.563144 
371 6.32026 33.2606 6.06649 0.171077 -0.134376 0.252436 0.330395 1.04302 -0.329899 
379 7.02872 34.4907 6.11326 0.121342 0.0292634 -0.13269 0.455286 0.436586 -1.68761 
225 19.7712 27.3831 6.12306 0.197138 -0.0563639 -0.054953 -0.059271 0.876122 -1.74483 
214 19.0587 26.1601 6.11409 -0.153883 0.171435 0.0492809 -0.88375 0.400542 -0.362123 
366 17.6398 26.129 6.12452 0.119119 -0.086645 -0.105021 -0.340193 0.104216 0.375916 
364 13.3932 28.4808 6.07254 -0.34817 -0.0456478 0.160143 1.25567 0.441567 -1.3818 
213 16.9244 27.3466 6.11321 0.244151 -0.191621 0.000796502 -0.15016 2.65544 -0.175602 
211 12.6773 29.6968 6.05693 -0.00388881 -0.286754 0.118195 0.121193 -0.552468 0.795518 
238 19.7811 29.8227 6.11887 -0.0334257 0.0271645 -0.0435799 0.437233 -0.844975 1.62797 
275 7.03556 41.8599 6.09646 -0.319214 -0.214266 -0.0697946 -0.16861 -0.431898 -0.798476 
220 19.0631 28.5994 6.11669 -0.0577922 0.0766506 -0.0114065 -0.0392334 0.780961 -0.355412 
365 15.5104 27.3105 6.1206 0.230344 -0.360148 -0.0651356 -0.660415 -0.0300594 0.860215 
339 8.44762 27.1502 6.09533 -0.380888 0.495956 -0.116516 -1.05053 1.51465 -0.862718 
347 14.806 26.0801 6.11914 0.0492604 0.125648 0.0760152 0.751376 0.313365 -0.66652 
346 12.6789 27.252 6.1268 -0.0296059 0.126407 -0.240195 0.214914 -0.804297 0.900375 
350 13.3967 26.0394 6.1131 -0.287472 -0.187566 0.0607139 -0.310716 2.40357 0.882833 
233 19.0591 31.0414 6.10381 0.271516 -0.257382 0.0352518 -1.28452 -0.390088 0.0388396 
877 13.3997 43.152 6.18134 0.326897 0.399561 -0.0286242 0.736209 -0.859347 0.88905 
381 9.14016 33.2883 6.12112 0.340572 0.149798 -0.0359303 -1.30423 -0.147573 -0.847362 
383 6.32397 38.1765 6.09415 -0.101371 -0.0795853 0.0792386 0.486595 1.19574 -0.871924 
878 15.5241 41.9496 6.16426 0.128847 0.309229 -0.0751521 0.933057 0.386306 1.92308 
874 16.9368 41.9759 6.13011 0.173246 -0.493397 0.21825 1.67254 -0.283323 -0.778878 
262 12.6927 39.4776 6.14991 0.103543 0.229979 -0.10434 -1.6059 -0.517899 -0.246093 
789 15.52 39.5166 6.14918 0.222072 -0.459727 -0.0581284 -1.77735 -0.308904 1.35135 
785 16.9359 39.5299 6.16747 -0.107224 0.0173789 -0.123659 -0.535574 -0.187836 0.822656 
385 8.44517 36.9826 6.11898 -0.0638738 -0.204212 -0.0769374 -0.867964 -0.811444 -0.967326 
263 14.8161 38.2862 6.09588 -0.33874 0.23534 0.275231 -0.0927804 1.57885 1.45892 
260 6.32182 40.6251 6.09709 0.247135 0.247777 -0.0319589 -1.57306 0.577914 -0.319019 
244 10.568 38.2341 6.14083 -0.108775 0.330157 -0.167607 0.716472 0.66748 0.167707 
267 13.3985 38.2548 6.13741 0.20111 0.27336 -0.16905 -0.0490524 0.558915 1.8515 
380 8.44777 34.5153 6.11963 -0.2407 0.398907 -0.0975438 -0.458121 -0.579802 -0.25984 
265 19.061 35.9009 6.0849 0.212198 0.13921 0.142321 2.08648 -0.800504 -1.33236 
264 16.9344 37.0966 6.09307 -0.173845 -0.258462 0.025385 -0.267045 1.04021 0.231551 
268 15.5184 37.0683 6.09116 0.134363 -0.212206 -0.0840055 -0.183227 0.174932 -0.0750586 
783 12.6892 41.9287 6.17461 0.0892824 -0.0362298 -0.177878 1.11252 0.0858364 -0.596012 
791 19.773 37.1171 6.13269 0.122901 0.175173 -0.0675137 -0.152438 -0.252986 -0.211104 
786 19.0627 38.3295 6.16179 -0.292474 0.557862 -0.135559 0.676225 1.76351 0.327829 
880 19.7644 39.5664 6.15721 0.112308 -0.550546 -0.0293175 0.471703 0.140168 -1.45334 
896 19.7816 41.9959 6.18065 0.030239 0.399537 -0.0216613 0.672147 1.84704 -1.25896 
270 19.7733 34.6909 6.11834 0.187307 -0.0327483 -0.0717186 1.72642 1.15847 0.0305521 
784 14.8144 40.7309 6.14703 -0.143915 0.0569034 -0.00421594 0.406304 0.0627847 0.831293 
879 17.6468 40.7488 6.17146 -0.0340655 0.472716 -0.102182 -0.605843 -1.20451 0.0314304 
875 19.0588 40.7817 6.17116 -0.021388 -0.0828948 0.0130551 -1.63398 -1.71833 -1.61997 
790 17.6427 38.3108 6.1236 0.340863 0.281421 0.141663 -1.03193 0.41316 -2.22746 
788 13.4034 40.7075 6.14397 -0.269856 -0.0282918 0.0884493 -0.297659 0.408094 -0.109059 
787 11.2773 41.912 6.1299 -0.109266 0.0828701 0.105445 -0.46736 -0.210927 0.405226 
269 17.6554 35.8849 6.08077 -0.542203 -0.122831 -0.0403186 -0.209001 2.09044 -0.56944 
370 4.90868 33.2252 6.09765 0 0 0 0 0 0 
317 6.32528 25.8872 6.08568 -0.264835 0.0642496 0.0482302 0.339521 0.652088 -0.217732 
356 4.90868 30.7652 6.09765 0 0 0 0 0 0 
336 4.90868 28.3052 6.09765 0 0 0 0 0 0 
316 4.90868 25.8452 6.09765 0 0 0 0 0 0 
337 6.3227 28.3429 6.08252 -0.0456899 -0.0801754 -0.0456568 0.273324 1.97691 -0.304383 
338 7.03504 27.121 6.05922 -0.281671 -0.141519 0.20248 -1.67071 -0.801667 -0.936747 
229 10.5674 35.7952 6.11779 -0.208145 -0.540207 -0.0307113 0.380864 1.45865 0.792143 
230 12.6697 34.5985 6.09428 0.235882 -0.47774 0.00269408 -0.35987 1.69846 0.524059 
216 10.5549 33.323 6.10839 -0.0969719 0.337602 0.0109204 -0.567718 0.303952 -0.222892 
358 7.02211 29.5782 6.08728 -0.165765 -0.0676133 -0.0705093 0.863368 0.424267 -0.332333 
373 8.44313 32.057 6.09539 -0.293972 -0.0287933 -0.00514427 0.0244071 1.0129 0.436099 
357 6.31715 30.8029 6.08605 0.197627 -0.149808 0.0752624 1.08297 -0.166146 0.0758957 
372 7.02556 32.033 6.08854 0.113649 -0.00582246 -0.0207086 1.07852 0.950717 -0.12146 
248 19.0634 33.4737 6.10902 -0.070759 -0.0877552 -0.100975 -1.02135 0.0114805 0.402459 
252 17.6507 33.4538 6.06819 -0.156261 -0.350422 0.120996 -0.290361 -1.48718 -0.0702704 
218 14.8058 30.9611 6.11743 -0.222197 0.215925 -0.0975558 -0.838202 2.05609 -0.554529 
236 15.5221 32.1918 6.09334 -0.302913 0.0262394 -0.0358516 0.230425 0.79765 -1.32434 
231 14.8056 33.4153 6.07013 -0.0105852 -0.509441 0.15138 1.13288 0.0356998 1.39412 
253 19.7795 32.2604 6.112 -0.169045 -0.105089 -0.0111107 -0.916707 -0.898832 0.719472 
235 13.393 33.3788 6.08677 -0.336041 -0.0519325 -0.0438057 1.30042 0.0685559 -1.07015 
232 16.9364 32.2278 6.07682 -0.0216568 0.00959062 0.0215684 -1.38232 1.34442 1.63286 
259 4.90868 40.6052 6.09765 0 0 0 0 0 0 
273 4.90868 43.0652 6.09765 0 0 0 0 0 0 
377 4.90868 35.6852 6.09765 0 0 0 0 0 0 
382 4.90868 38.1452 6.09765 0 0 0 0 0 0 
234 11.2575 34.5578 6.12885 0.174063 0.273983 -0.137899 0.814207 -0.00145297 0.636826 
386 9.15291 35.7567 6.09953 -0.186813 -0.027376 0.143584 0.095821 1.24398 -1.9647 
261 10.5719 40.683 6.12005 -0.297654 -0.0702471 -0.0059032 1.99318 0.876988 0.661152 
250 13.3822 35.8171 6.07119 0.450196 0.0160476 0.112927 -0.218326 1.55648 1.30655 
249 11.2765 37.0216 6.10636 -0.145671 -0.411777 0.145116 -2.02669 0.296253 0.71797 
245 12.685 37.0378 6.1045 0.020062 0.0190843 -0.0155132 2.03901 -0.376534 0.445459 
277 9.15008 40.6546 6.11272 0.354254 0.177297 -0.0708819 0.296624 0.164379 -1.24143 
266 11.2804 39.4609 6.11861 -0.179544 -0.0261167 0.1099 -0.554771 -0.803194 0.556153 
387 7.03231 39.4037 6.09844 -0.383797 0.0335468 0.0217455 0.753254 -0.0207976 -0.496929 