ITEM: TIMESTEP
4300
ITEM: NUMBER OF ATOMS
4798
ITEM: BOX BOUNDS ff ff ff
-10.3577 110.358
-10.0998 131.9
-100.402 112.598
ITEM: ATOMS id x y z fx fy fz vx vy vz 
72 -0.062301 2.4752 6.09765 0 0 0 0 0 0 
110 4.19854 7.39519 6.09765 0 0 0 0 0 0 
109 2.77826 7.39519 6.09765 0 0 0 0 0 0 
93 4.19854 4.9352 6.09765 0 0 0 0 0 0 
92 2.77826 4.9352 6.09765 0 0 0 0 0 0 
91 2.06812 6.16519 6.09765 0 0 0 0 0 0 
87 0.647839 6.16519 6.09765 0 0 0 0 0 0 
86 -0.062301 7.39519 6.09765 0 0 0 0 0 0 
81 4.19854 2.4752 6.09765 0 0 0 0 0 0 
80 2.77826 2.4752 6.09765 0 0 0 0 0 0 
79 2.06812 3.7052 6.09765 0 0 0 0 0 0 
78 0.647839 3.7052 6.09765 0 0 0 0 0 0 
77 -0.062301 4.9352 6.09765 0 0 0 0 0 0 
76 4.19854 0.015197 6.09765 0 0 0 0 0 0 
75 2.77826 0.015197 6.09765 0 0 0 0 0 0 
74 2.06812 1.2452 6.09765 0 0 0 0 0 0 
73 0.647839 1.2452 6.09765 0 0 0 0 0 0 
6 -0.062301 12.3152 6.09765 0 0 0 0 0 0 
131 4.19854 12.3152 6.09765 0 0 0 0 0 0 
130 2.77826 12.3152 6.09765 0 0 0 0 0 0 
124 4.19854 9.85519 6.09765 0 0 0 0 0 0 
123 2.77826 9.85519 6.09765 0 0 0 0 0 0 
122 2.06812 11.0852 6.09765 0 0 0 0 0 0 
117 0.647839 11.0852 6.09765 0 0 0 0 0 0 
108 2.06812 8.62519 6.09765 0 0 0 0 0 0 
100 0.647839 8.62519 6.09765 0 0 0 0 0 0 
99 -0.062301 9.85519 6.09765 0 0 0 0 0 0 
34 4.19854 14.7752 6.09765 0 0 0 0 0 0 
33 2.77826 14.7752 6.09765 0 0 0 0 0 0 
32 2.06812 16.0052 6.09765 0 0 0 0 0 0 
31 0.647839 16.0052 6.09765 0 0 0 0 0 0 
19 2.06812 13.5452 6.09765 0 0 0 0 0 0 
18 0.647839 13.5452 6.09765 0 0 0 0 0 0 
17 -0.062301 14.7752 6.09765 0 0 0 0 0 0 
300 4.19854 24.6152 6.09765 0 0 0 0 0 0 
299 2.77826 24.6152 6.09765 0 0 0 0 0 0 
204 4.19854 22.1552 6.09765 0 0 0 0 0 0 
203 2.77826 22.1552 6.09765 0 0 0 0 0 0 
202 2.06812 23.3852 6.09765 0 0 0 0 0 0 
191 0.647839 23.3852 6.09765 0 0 0 0 0 0 
190 -0.062301 24.6152 6.09765 0 0 0 0 0 0 
71 2.06812 20.9252 6.09765 0 0 0 0 0 0 
70 0.647839 20.9252 6.09765 0 0 0 0 0 0 
69 -0.062301 22.1552 6.09765 0 0 0 0 0 0 
63 4.19854 19.6952 6.09765 0 0 0 0 0 0 
62 2.77826 19.6952 6.09765 0 0 0 0 0 0 
49 4.19854 17.2352 6.09765 0 0 0 0 0 0 
48 2.77826 17.2352 6.09765 0 0 0 0 0 0 
47 2.06812 18.4652 6.09765 0 0 0 0 0 0 
46 0.647839 18.4652 6.09765 0 0 0 0 0 0 
45 -0.062301 19.6952 6.09765 0 0 0 0 0 0 
30 -0.062301 17.2352 6.09765 0 0 0 0 0 0 
355 4.19854 31.9952 6.09765 0 0 0 0 0 0 
354 2.77826 31.9952 6.09765 0 0 0 0 0 0 
353 2.06812 33.2252 6.09765 0 0 0 0 0 0 
344 0.647839 33.2252 6.09765 0 0 0 0 0 0 
335 4.19854 29.5352 6.09765 0 0 0 0 0 0 
334 2.77826 29.5352 6.09765 0 0 0 0 0 0 
333 2.06812 30.7652 6.09765 0 0 0 0 0 0 
326 0.647839 30.7652 6.09765 0 0 0 0 0 0 
325 -0.062301 31.9952 6.09765 0 0 0 0 0 0 
315 4.19854 27.0752 6.09765 0 0 0 0 0 0 
314 2.77826 27.0752 6.09765 0 0 0 0 0 0 
313 2.06812 28.3052 6.09765 0 0 0 0 0 0 
308 0.647839 28.3052 6.09765 0 0 0 0 0 0 
307 -0.062301 29.5352 6.09765 0 0 0 0 0 0 
298 2.06812 25.8452 6.09765 0 0 0 0 0 0 
297 0.647839 25.8452 6.09765 0 0 0 0 0 0 
296 -0.062301 27.0752 6.09765 0 0 0 0 0 0 
215 -0.062301 36.9152 6.09765 0 0 0 0 0 0 
376 4.19854 36.9152 6.09765 0 0 0 0 0 0 
375 2.77826 36.9152 6.09765 0 0 0 0 0 0 
369 4.19854 34.4552 6.09765 0 0 0 0 0 0 
368 2.77826 34.4552 6.09765 0 0 0 0 0 0 
367 2.06812 35.6852 6.09765 0 0 0 0 0 0 
362 0.647839 35.6852 6.09765 0 0 0 0 0 0 
343 -0.062301 34.4552 6.09765 0 0 0 0 0 0 
258 4.19854 41.8352 6.09765 0 0 0 0 0 0 
257 2.77826 41.8352 6.09765 0 0 0 0 0 0 
256 2.06812 43.0652 6.09765 0 0 0 0 0 0 
255 0.647839 43.0652 6.09765 0 0 0 0 0 0 
243 4.19854 39.3752 6.09765 0 0 0 0 0 0 
242 2.77826 39.3752 6.09765 0 0 0 0 0 0 
241 2.06812 40.6052 6.09765 0 0 0 0 0 0 
240 0.647839 40.6052 6.09765 0 0 0 0 0 0 
239 -0.062301 41.8352 6.09765 0 0 0 0 0 0 
228 2.06812 38.1452 6.09765 0 0 0 0 0 0 
227 0.647839 38.1452 6.09765 0 0 0 0 0 0 
226 -0.062301 39.3752 6.09765 0 0 0 0 0 0 
254 -0.062301 44.2952 6.09765 0 0 0 0 0 0 
905 4.19854 51.6752 6.09765 0 0 0 0 0 0 
904 2.77826 51.6752 6.09765 0 0 0 0 0 0 
890 4.19854 49.2152 6.09765 0 0 0 0 0 0 
889 2.77826 49.2152 6.09765 0 0 0 0 0 0 
888 2.06812 50.4452 6.09765 0 0 0 0 0 0 
887 0.647839 50.4452 6.09765 0 0 0 0 0 0 
886 -0.062301 51.6752 6.09765 0 0 0 0 0 0 
794 4.19854 46.7552 6.09765 0 0 0 0 0 0 
793 2.77826 46.7552 6.09765 0 0 0 0 0 0 
792 2.06812 47.9852 6.09765 0 0 0 0 0 0 
781 0.647839 47.9852 6.09765 0 0 0 0 0 0 
780 -0.062301 49.2152 6.09765 0 0 0 0 0 0 
280 2.06812 45.5252 6.09765 0 0 0 0 0 0 
279 0.647839 45.5252 6.09765 0 0 0 0 0 0 
278 -0.062301 46.7552 6.09765 0 0 0 0 0 0 
272 4.19854 44.2952 6.09765 0 0 0 0 0 0 
271 2.77826 44.2952 6.09765 0 0 0 0 0 0 
959 4.19854 59.0552 6.09765 0 0 0 0 0 0 
958 2.77826 59.0552 6.09765 0 0 0 0 0 0 
957 2.06812 60.2852 6.09765 0 0 0 0 0 0 
952 0.647839 60.2852 6.09765 0 0 0 0 0 0 
945 4.19854 56.5952 6.09765 0 0 0 0 0 0 
944 2.77826 56.5952 6.09765 0 0 0 0 0 0 
943 2.06812 57.8252 6.09765 0 0 0 0 0 0 
934 0.647839 57.8252 6.09765 0 0 0 0 0 0 
933 -0.062301 59.0552 6.09765 0 0 0 0 0 0 
925 4.19854 54.1352 6.09765 0 0 0 0 0 0 
924 2.77826 54.1352 6.09765 0 0 0 0 0 0 
923 2.06812 55.3652 6.09765 0 0 0 0 0 0 
916 0.647839 55.3652 6.09765 0 0 0 0 0 0 
915 -0.062301 56.5952 6.09765 0 0 0 0 0 0 
903 2.06812 52.9052 6.09765 0 0 0 0 0 0 
898 0.647839 52.9052 6.09765 0 0 0 0 0 0 
897 -0.062301 54.1352 6.09765 0 0 0 0 0 0 
805 -0.062301 61.5152 6.09765 0 0 0 0 0 0 
966 4.19854 61.5152 6.09765 0 0 0 0 0 0 
965 2.77826 61.5152 6.09765 0 0 0 0 0 0 
862 4.19854 68.8952 6.09765 0 0 0 0 0 0 
861 2.77826 68.8952 6.09765 0 0 0 0 0 0 
848 4.19854 66.4352 6.09765 0 0 0 0 0 0 
847 2.77826 66.4352 6.09765 0 0 0 0 0 0 
846 2.06812 67.6652 6.09765 0 0 0 0 0 0 
845 0.647839 67.6652 6.09765 0 0 0 0 0 0 
844 -0.062301 68.8952 6.09765 0 0 0 0 0 0 
833 4.19854 63.9752 6.09765 0 0 0 0 0 0 
832 2.77826 63.9752 6.09765 0 0 0 0 0 0 
831 2.06812 65.2052 6.09765 0 0 0 0 0 0 
830 0.647839 65.2052 6.09765 0 0 0 0 0 0 
829 -0.062301 66.4352 6.09765 0 0 0 0 0 0 
818 2.06812 62.7452 6.09765 0 0 0 0 0 0 
817 0.647839 62.7452 6.09765 0 0 0 0 0 0 
816 -0.062301 63.9752 6.09765 0 0 0 0 0 0 
1828 4.19854 76.2752 6.09765 0 0 0 0 0 0 
1827 2.77826 76.2752 6.09765 0 0 0 0 0 0 
1826 2.06812 77.5052 6.09765 0 0 0 0 0 0 
1821 0.647839 77.5052 6.09765 0 0 0 0 0 0 
1813 4.19854 73.8152 6.09765 0 0 0 0 0 0 
1812 2.77826 73.8152 6.09765 0 0 0 0 0 0 
1811 2.06812 75.0452 6.09765 0 0 0 0 0 0 
1810 0.647839 75.0452 6.09765 0 0 0 0 0 0 
1809 -0.062301 76.2752 6.09765 0 0 0 0 0 0 
1717 4.19854 71.3552 6.09765 0 0 0 0 0 0 
1716 2.77826 71.3552 6.09765 0 0 0 0 0 0 
1715 2.06812 72.5852 6.09765 0 0 0 0 0 0 
1704 0.647839 72.5852 6.09765 0 0 0 0 0 0 
1703 -0.062301 73.8152 6.09765 0 0 0 0 0 0 
870 2.06812 70.1252 6.09765 0 0 0 0 0 0 
869 0.647839 70.1252 6.09765 0 0 0 0 0 0 
868 -0.062301 71.3552 6.09765 0 0 0 0 0 0 
1728 -0.062301 86.1152 6.09765 0 0 0 0 0 0 
1889 4.19854 86.1152 6.09765 0 0 0 0 0 0 
1888 2.77826 86.1152 6.09765 0 0 0 0 0 0 
1882 4.19854 83.6552 6.09765 0 0 0 0 0 0 
1881 2.77826 83.6552 6.09765 0 0 0 0 0 0 
1880 2.06812 84.8852 6.09765 0 0 0 0 0 0 
1875 0.647839 84.8852 6.09765 0 0 0 0 0 0 
1868 4.19854 81.1952 6.09765 0 0 0 0 0 0 
1867 2.77826 81.1952 6.09765 0 0 0 0 0 0 
1866 2.06812 82.4252 6.09765 0 0 0 0 0 0 
1857 0.647839 82.4252 6.09765 0 0 0 0 0 0 
1856 -0.062301 83.6552 6.09765 0 0 0 0 0 0 
1848 4.19854 78.7352 6.09765 0 0 0 0 0 0 
1847 2.77826 78.7352 6.09765 0 0 0 0 0 0 
1846 2.06812 79.9652 6.09765 0 0 0 0 0 0 
1839 0.647839 79.9652 6.09765 0 0 0 0 0 0 
1838 -0.062301 81.1952 6.09765 0 0 0 0 0 0 
1820 -0.062301 78.7352 6.09765 0 0 0 0 0 0 
1741 2.06812 87.3452 6.09765 0 0 0 0 0 0 
1740 0.647839 87.3452 6.09765 0 0 0 0 0 0 
2677 4.19854 95.9552 6.09765 0 0 0 0 0 0 
2676 2.77826 95.9552 6.09765 0 0 0 0 0 0 
1793 2.06812 94.7252 6.09765 0 0 0 0 0 0 
1792 0.647839 94.7252 6.09765 0 0 0 0 0 0 
1791 -0.062301 95.9552 6.09765 0 0 0 0 0 0 
1785 4.19854 93.4952 6.09765 0 0 0 0 0 0 
1784 2.77826 93.4952 6.09765 0 0 0 0 0 0 
1771 4.19854 91.0352 6.09765 0 0 0 0 0 0 
1770 2.77826 91.0352 6.09765 0 0 0 0 0 0 
1769 2.06812 92.2652 6.09765 0 0 0 0 0 0 
1768 0.647839 92.2652 6.09765 0 0 0 0 0 0 
1767 -0.062301 93.4952 6.09765 0 0 0 0 0 0 
1756 4.19854 88.5752 6.09765 0 0 0 0 0 0 
1755 2.77826 88.5752 6.09765 0 0 0 0 0 0 
1754 2.06812 89.8052 6.09765 0 0 0 0 0 0 
1753 0.647839 89.8052 6.09765 0 0 0 0 0 0 
1752 -0.062301 91.0352 6.09765 0 0 0 0 0 0 
1739 -0.062301 88.5752 6.09765 0 0 0 0 0 0 
2663 -0.062301 98.4152 6.09765 0 0 0 0 0 0 
2808 4.19854 103.335 6.09765 0 0 0 0 0 0 
2807 2.77826 103.335 6.09765 0 0 0 0 0 0 
2806 2.06812 104.565 6.09765 0 0 0 0 0 0 
2799 0.647839 104.565 6.09765 0 0 0 0 0 0 
2788 4.19854 100.875 6.09765 0 0 0 0 0 0 
2787 2.77826 100.875 6.09765 0 0 0 0 0 0 
2786 2.06812 102.105 6.09765 0 0 0 0 0 0 
2781 0.647839 102.105 6.09765 0 0 0 0 0 0 
2780 -0.062301 103.335 6.09765 0 0 0 0 0 0 
2773 4.19854 98.4152 6.09765 0 0 0 0 0 0 
2772 2.77826 98.4152 6.09765 0 0 0 0 0 0 
2771 2.06812 99.6452 6.09765 0 0 0 0 0 0 
2770 0.647839 99.6452 6.09765 0 0 0 0 0 0 
2769 -0.062301 100.875 6.09765 0 0 0 0 0 0 
2675 2.06812 97.1852 6.09765 0 0 0 0 0 0 
2664 0.647839 97.1852 6.09765 0 0 0 0 0 0 
2849 4.19854 110.715 6.09765 0 0 0 0 0 0 
2848 2.77826 110.715 6.09765 0 0 0 0 0 0 
2842 4.19854 108.255 6.09765 0 0 0 0 0 0 
2841 2.77826 108.255 6.09765 0 0 0 0 0 0 
2840 2.06812 109.485 6.09765 0 0 0 0 0 0 
2835 0.647839 109.485 6.09765 0 0 0 0 0 0 
2828 4.19854 105.795 6.09765 0 0 0 0 0 0 
2827 2.77826 105.795 6.09765 0 0 0 0 0 0 
2826 2.06812 107.025 6.09765 0 0 0 0 0 0 
2817 0.647839 107.025 6.09765 0 0 0 0 0 0 
2816 -0.062301 108.255 6.09765 0 0 0 0 0 0 
2798 -0.062301 105.795 6.09765 0 0 0 0 0 0 
2716 4.19854 113.175 6.09765 0 0 0 0 0 0 
2715 2.77826 113.175 6.09765 0 0 0 0 0 0 
2701 2.06812 111.945 6.09765 0 0 0 0 0 0 
2700 0.647839 111.945 6.09765 0 0 0 0 0 0 
2699 -0.062301 113.175 6.09765 0 0 0 0 0 0 
2688 -0.062301 110.715 6.09765 0 0 0 0 0 0 
2712 -0.062301 115.635 6.09765 0 0 0 0 0 0 
3636 4.19854 120.555 6.09765 0 0 0 0 0 0 
3635 2.77826 120.555 6.09765 0 0 0 0 0 0 
3634 2.06812 121.785 6.09765 0 0 0 0 0 0 
3623 0.647839 121.785 6.09765 0 0 0 0 0 0 
2753 2.06812 119.325 6.09765 0 0 0 0 0 0 
2752 0.647839 119.325 6.09765 0 0 0 0 0 0 
2751 -0.062301 120.555 6.09765 0 0 0 0 0 0 
2745 4.19854 118.095 6.09765 0 0 0 0 0 0 
2744 2.77826 118.095 6.09765 0 0 0 0 0 0 
2731 4.19854 115.635 6.09765 0 0 0 0 0 0 
2730 2.77826 115.635 6.09765 0 0 0 0 0 0 
2729 2.06812 116.865 6.09765 0 0 0 0 0 0 
2728 0.647839 116.865 6.09765 0 0 0 0 0 0 
2727 -0.062301 118.095 6.09765 0 0 0 0 0 0 
2714 2.06812 114.405 6.09765 0 0 0 0 0 0 
2713 0.647839 114.405 6.09765 0 0 0 0 0 0 
95 6.33217 3.8111 6.11949 0.300916 0.239023 -0.0717459 -0.330186 0.712748 1.45456 
90 11.5323 0.477215 5.98028 0.119139 0.122164 0.018089 -2.19956 -0.227636 0.185409 
96 7.08027 2.62231 6.10242 -0.138647 -0.192892 0.00181008 -0.198389 0.123204 1.006 
104 17.1831 0.721366 5.95924 0.449506 0.188481 0.152081 1.55731 -0.559868 1.07138 
85 8.57168 0.353839 6.36207 -0.577747 -0.0854753 0.0163101 -1.28026 -0.670665 0.300682 
83 6.34243 1.37896 6.12273 0.307902 -0.34218 0.153201 -0.78292 0.301006 2.41093 
112 6.3367 6.25155 6.14601 -0.402282 -0.235669 -0.0266688 0.116254 0.0767539 0.855495 
84 7.19431 0.247533 6.23258 0.331053 0.0804024 -0.0304017 -1.6556 -1.83481 0.463052 
88 10.7128 1.61825 6.11058 -0.311407 0.306618 0.117598 -0.956393 -1.54538 -0.814286 
98 9.30675 1.54288 6.20626 0.310116 0.304278 -0.188321 -1.25454 -0.0396458 -0.683774 
127 7.05204 7.48381 6.17223 0.078172 0.307098 -0.141343 0.738635 -0.0534641 -0.320295 
128 8.46616 7.58009 6.16767 0.350868 -0.194865 0.130704 -0.682267 2.52497 1.33869 
97 8.52295 2.7299 6.12968 0.414524 -0.144163 0.0716333 -0.406186 0.289894 -0.642617 
113 7.06441 5.04008 6.14544 -0.146419 0.43409 -0.0159537 1.48034 0.223091 -0.220768 
94 4.90868 3.7052 6.09765 0 0 0 0 0 0 
111 4.90868 6.16519 6.09765 0 0 0 0 0 0 
82 4.90868 1.2452 6.09765 0 0 0 0 0 0 
4 17.1492 3.0888 6.24059 0.0490097 -0.0487283 0.105867 0.236328 1.82354 0.839433 
5 19.2909 1.95844 6.45977 -0.24355 -0.606648 -0.0769999 -0.895359 -0.179765 -1.29245 
89 12.8935 0.549283 6.17316 0.039159 0.155121 0.0782421 -1.15088 0.580016 -0.19741 
118 11.3822 5.27861 6.18471 -0.402684 -0.135999 0.0670824 0.389718 -1.6835 0.21654 
119 13.5477 4.1725 6.23622 0.0415442 -0.482964 -0.0367191 -0.41826 1.46783 -0.719369 
28 17.7814 6.70917 6.17094 0.414134 0.610744 0.186073 -0.0533431 -0.721762 0.176814 
106 13.6251 1.75665 6.20772 0.123394 -0.319432 -0.0554958 -0.174315 0.79027 0.118378 
102 12.8553 2.93883 6.21018 -0.421556 0.165968 0.0529719 -0.345896 -0.277035 -0.125199 
120 15.7282 3.02724 6.25382 -0.44224 -0.0185467 0.0756837 0.217105 -0.0472649 -0.245972 
115 9.24262 3.96234 6.1474 -0.447349 -0.0112509 -0.0144197 -0.220661 0.277081 -0.788556 
9 14.929 6.63191 6.22639 -0.562917 -0.364307 -0.0696334 1.35245 -0.598397 0.468244 
10 17.0809 5.50124 6.23482 0.0350247 -0.633456 -0.0478259 -0.132698 1.78928 0.349983 
24 19.2007 6.76007 6.2229 -0.115084 -0.341245 -0.15484 -0.248561 -0.0354531 0.0453975 
129 9.20589 6.38053 6.19774 -0.0283592 -0.0894717 -0.0427444 -0.446119 0.712197 -0.14211 
101 10.6642 4.05878 6.14911 0.151189 -0.404286 0.0938844 0.129026 -0.775123 0.643134 
1 10.6292 6.46362 6.21492 0.171197 0.432232 -0.167914 0.995175 1.16712 -0.718756 
13 13.5037 6.57832 6.21402 0.171157 -0.159591 -0.0526644 -0.691801 -0.173436 -0.624308 
2 12.7944 5.35641 6.21955 0.257223 -0.00694857 -0.0737813 -0.922489 -0.131781 1.10252 
11 19.2505 4.35289 6.29629 -0.0708542 -0.459752 0.0124963 1.24155 1.13462 -0.0390839 
105 11.4139 2.86285 6.17055 0.336806 -0.067519 -0.145053 1.52636 0.408621 -0.502348 
14 15.665 5.43311 6.24593 0.225295 0.268404 0.0058693 1.32777 1.48349 -0.112236 
15 17.8394 4.31272 6.26182 -0.313142 0.0706377 -0.00377149 -0.340933 0.240517 1.87257 
3 14.969 4.21118 6.25588 -0.0837053 0.10106 -0.0444979 0.102951 0.947174 -1.59456 
114 8.48303 5.15202 6.16895 0.420777 -0.251679 -0.0559326 -0.675679 0.217778 0.221752 
107 15.8382 0.640273 6.22115 -0.435388 0.156709 0.020385 0.891852 -1.07919 -1.22803 
103 15.0213 1.79682 6.23253 0.313015 -0.117883 -0.113078 -0.475046 -0.436091 0.745593 
121 17.9137 1.89966 6.23896 -0.177235 -0.176707 -0.166057 -0.803904 0.257466 -0.576699 
192 10.5669 18.6419 6.10997 0.240432 -0.314476 0.023997 -0.784377 0.757229 1.06914 
20 10.5887 11.3171 6.08948 0.283001 0.144137 -0.0309062 0.694883 -0.211725 0.375736 
302 16.97 20.0144 6.15814 -0.140929 -0.202269 -0.0455626 0.206733 -1.44253 1.25441 
209 9.15602 18.5865 6.07946 -0.18581 0.0575142 0.0792555 0.872306 1.75437 1.03348 
68 9.16941 16.1456 6.12256 -0.106678 -0.243222 -0.00941379 0.713098 -0.192621 -0.0443699 
281 10.588 21.0771 6.1424 -0.642672 -0.610422 -0.12261 1.35387 -1.04595 -0.858904 
144 9.17642 13.6926 6.131 -0.16978 -0.292993 -0.20785 -0.536092 0.975439 -0.885878 
328 12.7075 24.7954 6.08632 -0.0260773 0.236497 0.0364337 0.203688 -1.08334 0.270539 
206 6.32107 20.9609 6.10242 0.113894 0.303484 -0.107903 -0.706086 0.469752 1.21442 
134 7.04095 9.93875 6.14584 0.301115 -0.113898 -0.289267 0.468267 -0.302725 0.433292 
133 6.32576 11.1522 6.09606 -0.142741 0.0744518 0.111655 -2.87587 -0.492017 -0.388928 
322 19.0957 21.2853 6.15721 -0.248897 -0.327814 -0.0459209 1.287 -1.62209 -0.25313 
309 10.5828 23.5217 6.1156 0.0653868 -0.125875 -0.0432463 -0.765197 -0.167638 -0.404569 
319 8.44602 24.6914 6.09394 0.374527 0.277451 -0.043914 -2.02549 -0.850104 1.04537 
293 7.03828 22.201 6.10423 -0.287777 -0.354609 -0.028649 -1.57561 -1.50484 -0.398519 
67 8.44112 17.3557 6.08537 0.31818 -0.0521265 0.0452091 1.16975 1.05909 -0.730752 
193 12.7101 17.4794 6.09741 -0.21516 0.0484501 0.0940024 0.40749 -0.485764 0.0617602 
197 11.2893 17.4273 6.1153 0.272235 0.172281 0.0119962 1.56694 0.565809 1.01348 
305 17.6857 18.8013 6.15539 0.095932 0.205629 0.0984401 -0.207204 -0.0944617 0.726833 
66 7.02933 17.2894 6.07604 0.0516389 0.0983389 -0.0198756 -0.358346 0.935479 1.58573 
208 8.43663 19.8037 6.07801 0.482783 -0.315394 0.0187581 -0.527933 1.27473 -0.356775 
361 19.7914 24.9355 6.10185 -0.154458 0.00360116 0.169506 -1.44124 0.986387 -0.274426 
7 10.6044 8.88365 6.16024 0.131957 0.445405 -0.0149681 -0.781824 -0.618208 -0.8525 
320 9.16893 23.4772 6.09072 -0.230852 -0.118942 0.0314814 -0.525289 -1.36539 0.872972 
318 7.03568 24.6499 6.09379 -0.268614 0.199475 0.0118761 -0.147662 -0.590212 0.0796523 
8 12.761 7.76951 6.18214 0.115941 -0.135638 0.111222 -0.723079 -0.273447 -0.253047 
12 11.3451 7.69711 6.19587 -0.220199 -0.588185 0.0201568 -0.655802 1.20323 -0.11908 
342 19.802 22.5045 6.12906 0.397198 0.0726148 0.11643 0.223401 1.59697 -0.992869 
294 8.45158 22.2454 6.08548 0.337035 -0.00664348 0.0693993 0.632527 0.285495 -1.16813 
65 6.3192 18.5065 6.07161 -0.0337726 0.0947412 0.0975492 1.67227 0.330036 -0.591985 
207 7.02607 19.7376 6.0721 0.058515 0.358838 0.0468845 -0.0826864 0.413684 -0.677406 
135 8.46261 10.0129 6.10609 -0.116251 0.0555623 0.16329 0.341563 -0.279297 -0.766564 
136 9.19008 8.80693 6.16796 -0.22106 -0.000888383 -0.116188 1.65401 0.223 -0.510561 
25 11.3173 10.1149 6.12997 -0.112814 -0.137177 -0.0810758 -1.95922 -1.4154 -0.252218 
295 9.16929 21.0244 6.09137 -0.263388 0.202511 0.0495191 1.08727 0.0161469 1.78961 
126 6.33434 8.6966 6.13712 -0.492134 0.0950401 0.00817083 -2.05711 0.180932 0.473527 
51 6.32713 16.0553 6.08398 -0.322778 0.133116 0.0897273 -0.993317 -1.91792 0.335269 
137 4.90868 13.5452 6.09765 0 0 0 0 0 0 
132 4.90868 11.0852 6.09765 0 0 0 0 0 0 
125 4.90868 8.62519 6.09765 0 0 0 0 0 0 
50 4.90868 16.0052 6.09765 0 0 0 0 0 0 
198 13.4315 16.2734 6.09538 -0.293151 -0.310657 0.0719917 1.40564 0.395661 0.646567 
341 19.076 23.7139 6.13488 0.453632 -0.0639904 -0.0600496 1.34199 0.343067 -0.136119 
60 17.7281 11.5373 6.15714 -0.49568 0.0204317 -0.0246632 -1.27503 0.116374 -1.35779 
59 15.5823 12.6879 6.11581 -0.261257 0.0196305 0.0430768 1.64543 -0.667742 0.0135522 
324 19.8072 20.0691 6.16012 0.150914 0.332054 -0.0743017 0.607465 -0.439746 -0.0397049 
58 13.4422 13.8353 6.06851 -0.343859 0.0824484 0.0650575 -0.122722 0.664376 -1.2072 
56 19.1391 11.5857 6.16744 -0.0651548 -0.31121 -0.0671231 0.512233 -0.23409 0.181225 
138 6.32496 13.613 6.09465 -0.036089 -0.426358 -0.00699135 0.719018 0.489278 1.19474 
194 14.8402 16.3204 6.12775 0.287718 -0.115542 -0.102405 0.729991 -0.193292 -0.659098 
53 12.7167 15.0459 6.09283 0.0200781 -0.036413 -0.0256768 0.473863 -1.52552 -1.43195 
195 16.9802 15.1622 6.12595 -0.0561992 -0.0689743 0.0174204 0.527678 1.83476 1.5265 
43 17.755 9.12205 6.15844 -0.246927 0.378262 0.0395562 -1.41125 0.467072 0.334409 
42 15.5977 10.2676 6.14914 0.0184433 -0.227357 -0.0771064 -0.295031 -0.187096 -0.489467 
196 19.119 14.0036 6.1133 0.311134 -0.228013 0.110643 -0.0679136 0.0244614 0.687307 
39 19.1616 9.16415 6.17956 0.435033 0.42471 -0.014659 0.502081 1.22962 -1.09458 
285 19.1055 16.4312 6.12305 0.0843106 -0.446763 0.039679 0.961323 0.653501 1.04731 
38 17.0093 10.3166 6.14852 0.501257 0.191754 0.0213858 0.810404 1.01165 0.177242 
26 13.4733 8.98555 6.16208 -0.257723 0.193203 -0.161799 0.0774158 -0.751545 -0.0115051 
22 14.8872 9.04724 6.14974 0.188448 -0.175295 0.134704 1.89089 -0.22989 -0.802931 
303 19.1 18.852 6.17582 -0.423858 0.0527609 -0.193767 1.79372 -0.183864 0.0638609 
306 19.8142 17.6488 6.13764 0.573474 -0.0454761 0.199534 0.741765 0.526198 0.641625 
23 17.0542 7.91495 6.16123 -0.666397 -0.783899 0.0799919 -0.225993 0.290525 0.418737 
27 15.6302 7.84645 6.18459 0.307024 0.555715 -0.0510682 0.639187 0.404249 0.229098 
289 17.6928 16.3833 6.13829 0.169907 -0.45105 -0.0366786 -0.523228 -0.49205 -0.840217 
57 11.2985 14.9877 6.10609 0.350669 -0.00677758 0.0767556 -1.96431 -0.643743 0.327335 
41 13.4516 11.4124 6.07784 0.0835284 -0.5906 0.183534 -0.907334 -1.94762 -1.47796 
205 4.90868 20.9252 6.09765 0 0 0 0 0 0 
291 4.90868 23.3852 6.09765 0 0 0 0 0 0 
199 15.5602 15.1081 6.09948 0.35434 0.389097 0.117138 -1.44865 0.728031 0.758951 
21 12.7297 10.1823 6.10439 0.60575 0.303024 0.104868 0.2617 0.744859 -0.12206 
64 4.90868 18.4652 6.09765 0 0 0 0 0 0 
36 12.7292 12.6101 6.07631 -0.228787 0.244644 -0.103042 -1.83622 -1.42027 -2.84168 
37 14.8705 11.4653 6.12524 -0.243072 0.18391 -0.130673 -0.54713 -0.626319 1.14059 
54 14.8504 13.8924 6.09347 0.190007 -0.290514 -0.019808 -0.246165 -1.03948 0.546044 
200 17.712 13.9564 6.14032 -0.523671 0.171235 -0.102324 -0.545194 0.759321 1.78477 
55 16.9923 12.7412 6.13814 0.396223 -0.192127 0.0379812 -0.377779 0.149629 -0.714089 
142 7.03924 14.8423 6.11275 0.220286 0.0120548 -0.0905812 0.715063 -0.522929 0.217145 
311 11.2902 22.2928 6.13411 0.118615 0.969139 -0.0708075 -0.0746229 0.651479 -0.598153 
143 8.45863 14.9074 6.12475 -0.154018 -0.00997175 0.0163057 -1.10321 -0.281274 1.38195 
40 11.3121 12.5446 6.07249 -0.0398633 0.0474288 0.104715 0.123126 0.4129 -0.145081 
52 10.5872 16.2014 6.14654 -0.433816 -0.182753 -0.250925 -0.327963 -0.176215 0.289827 
140 8.45539 12.4501 6.09179 0.0500705 0.652691 0.0347444 0.139206 -0.629084 -0.326663 
286 11.2932 19.855 6.13926 0.139842 0.312703 0.0127342 -0.743142 -0.274685 -0.247323 
287 13.4311 18.6989 6.11983 -0.15843 -0.184801 0.0303039 -0.205252 -0.877971 1.17133 
288 15.5634 17.5377 6.13528 -0.132374 -0.187025 0.0256639 -1.37461 -0.461627 -1.23412 
330 11.2991 24.7546 6.09764 -0.622832 -0.0884744 -0.0759104 -1.09695 0.605539 0.917407 
139 7.03702 12.3902 6.08518 0.133138 0.00872766 0.0851802 -0.428174 -0.252295 0.392087 
141 9.17802 11.2451 6.08891 -0.156862 -0.188721 0.0407319 0.334718 -1.50636 -0.070191 
352 17.6681 23.6716 6.14056 -0.308462 -0.125439 0.0560225 1.02813 1.35987 0.715864 
351 15.5356 24.8422 6.11109 0.232821 0.323233 0.122245 -0.0596591 0.965033 -0.105523 
348 16.9505 24.8834 6.14845 -0.149782 -0.0146282 -0.136164 -0.06048 0.109454 -0.021384 
332 15.5412 22.4147 6.11839 -0.164518 7.62837e-05 -0.0220171 1.85697 -2.49254 -0.341437 
331 13.4095 23.5783 6.09459 0.0506355 -0.0505489 0.00829504 -1.85979 0.787561 -0.0458461 
329 14.8172 23.6289 6.0945 0.409566 -0.532242 0.100326 0.607625 0.0922186 0.597369 
323 17.682 21.2338 6.16437 -0.187312 0.300353 -0.0829131 -0.0773817 0.144565 0.877716 
35 10.594 13.7574 6.11223 -0.231766 -0.129656 -0.0690541 -1.23429 -0.386597 -0.177676 
321 16.9517 22.4444 6.14211 0.439837 0.198365 0.0368874 -0.107028 0.823802 0.763634 
312 13.4125 21.1357 6.15562 0.652077 -0.0209479 -0.149017 0.56482 -1.16318 -0.463894 
310 12.7007 22.3509 6.11767 -0.000245767 -0.11184 0.072253 0.39744 -1.75572 -0.68771 
283 14.8426 18.7428 6.13241 0.0282488 0.257428 -0.0175678 0.772413 -1.33796 0.131362 
284 16.9756 17.5809 6.16123 -0.294596 0.379904 -0.0753471 0.349184 0.0466804 0.208982 
304 15.5553 19.9647 6.13977 0.0194179 0.416078 0.0317583 1.04866 -1.08508 -0.511736 
282 12.7099 19.9017 6.14579 -0.108679 0.411553 -0.0708907 -1.24115 1.43807 -0.365093 
301 14.841 21.1873 6.1292 -0.628069 -0.463417 0.0743619 0.141672 0.147745 -1.09674 
292 6.32378 23.4184 6.10942 0.0458273 0.206711 -0.0676048 1.49097 -0.714725 1.06448 
389 9.15272 38.1944 6.14149 -0.0321788 0.0168513 -0.115903 -0.270837 -0.0300988 1.3914 
384 7.02942 36.9543 6.13529 -0.217839 -0.550992 -0.0314044 0.242863 -0.705371 1.93088 
378 6.32676 35.7096 6.13378 -0.229328 0.254554 -0.137208 1.0368 -0.55478 1.30714 
274 6.32258 43.0828 6.12823 0.14156 -0.245665 -0.0574552 -0.424756 0.449096 0.0369771 
371 6.32403 33.2464 6.12075 -0.143426 -0.10059 -0.195063 0.540762 -0.972594 0.28401 
379 7.01831 34.4787 6.09619 0.214058 0.225264 0.143609 1.27285 0.516196 1.96165 
225 19.794 27.3639 6.07302 -0.0474747 0.124059 0.110368 1.05552 -1.37911 0.295765 
214 19.0641 26.1478 6.11642 0.42685 -0.0319154 -0.136113 -0.0946084 -0.229931 -0.273085 
366 17.6493 26.1138 6.11778 0.44607 -0.1215 0.0977251 0.569994 -0.737938 1.3821 
364 13.4165 28.4629 6.07362 -0.555038 0.0298003 -0.0744534 0.095268 0.829747 1.58535 
213 16.9501 27.3335 6.11254 -0.168146 -0.0424383 0.0190035 0.983387 0.605695 2.1404 
211 12.7034 29.6818 6.05959 -0.446257 0.0192487 0.0296915 -0.14921 -0.635067 -0.618746 
238 19.8001 29.8063 6.06493 -0.259355 -0.0904767 -0.0414003 0.545213 -1.65139 0.300447 
275 7.03463 41.8508 6.13556 -0.314079 0.458059 -0.0492575 -1.08263 0.14912 -1.22821 
220 19.0886 28.5835 6.05973 -0.355054 0.0418418 0.115841 1.88549 -1.2016 -0.726767 
365 15.535 27.2915 6.11402 0.219794 -0.263981 0.0208921 0.126336 0.4395 -0.482221 
339 8.44983 27.1539 6.06584 0.105814 0.0296392 0.206153 -1.12591 -0.0508439 0.285229 
347 14.8318 26.0611 6.13087 -0.132025 0.160831 -0.146249 -1.58169 -0.39432 0.331805 
346 12.6978 27.2393 6.06951 0.0592187 -0.0503231 0.166029 0.535612 -2.72727 -0.662412 
350 13.4187 26.0252 6.10494 -0.211965 -0.1694 -0.0481591 -1.65956 -0.0228655 0.54922 
233 19.0836 31.0196 6.06653 -0.193164 -0.0417471 -0.000776109 -0.0527763 0.735761 2.22396 
877 13.4006 43.1541 6.11575 -0.0115659 -0.249602 0.0218028 0.41753 0.647496 0.148438 
381 9.14048 33.2885 6.09959 0.233715 -0.0638408 -0.0792358 0.283569 1.47918 0.0933513 
383 6.31796 38.1712 6.13204 0.0793967 0.0950941 -0.0376976 0.697194 -0.936106 0.802572 
878 15.5225 41.9408 6.11135 -0.18648 -0.136083 0.0665684 -0.124063 0.794535 -0.204996 
874 16.9318 41.9611 6.14914 0.183519 -0.209053 -0.07525 -0.58518 0.0433583 2.22218 
262 12.6898 39.4721 6.08591 -0.0891562 0.177138 0.0550586 -0.287847 -0.395016 -0.803289 
789 15.5193 39.4917 6.11733 -0.12662 0.169596 0.0905645 0.346122 -1.03748 0.0429015 
785 16.9317 39.5177 6.14481 -0.0953662 -0.100153 -0.0174582 0.135032 -1.1334 -1.35219 
385 8.44046 36.9724 6.12619 0.00502207 -0.180842 -0.00616279 0.375705 -1.33046 -0.156683 
263 14.8001 38.2716 6.13985 0.313774 0.191317 -0.235831 0.765845 0.887234 0.491962 
260 6.32987 40.6279 6.10959 -0.444523 -0.191254 0.0505968 0.612242 0.999011 -0.302671 
244 10.5664 38.2178 6.1071 -0.0658199 0.502574 0.0829213 0.779938 0.956449 0.0408553 
267 13.3928 38.2522 6.09864 -0.0523223 -0.173047 0.0211019 -0.57373 -0.940461 -0.31557 
380 8.43062 34.5094 6.10301 0.257236 0.153785 0.031018 -0.303033 1.23453 -0.0333604 
265 19.0646 35.9016 6.15616 0.333295 -0.159789 -0.133293 1.36555 0.630997 0.556148 
264 16.9296 37.0727 6.1281 0.0116727 0.0775091 0.0747656 -0.919538 -0.113472 -1.44172 
268 15.5081 37.0577 6.10801 0.492432 -0.415947 0.106619 -0.897044 -0.923142 -1.22645 
783 12.6927 41.9239 6.1094 -0.244324 0.0315614 0.036103 1.05624 -0.757806 -0.629508 
791 19.7745 37.1324 6.15507 0.143002 -0.773071 0.0757952 0.31116 0.549735 -0.581081 
786 19.058 38.335 6.16266 -0.243008 0.219037 0.097303 -0.423081 -0.0260426 -0.703632 
880 19.7725 39.5535 6.17422 -0.33195 0.235759 0.028625 -0.674476 -1.18238 1.27777 
896 19.7744 41.992 6.17039 -0.0684491 0.199696 -0.00369547 0.360762 0.600726 1.12057 
270 19.7792 34.6796 6.10538 0.0861565 0.0916134 0.0498021 0.302658 0.626292 -0.0354916 
784 14.8102 40.715 6.09496 0.162683 0.0591091 0.0897575 1.17278 1.18945 0.462008 
879 17.6431 40.7372 6.13924 0.117351 0.366961 0.154388 0.344057 -1.01577 -2.27021 
875 19.0603 40.7728 6.17614 -0.215875 -0.180507 -0.117582 -0.885464 -0.982246 -0.373436 
790 17.6412 38.3001 6.16609 0.140395 -0.0444381 -0.20051 -1.39281 -0.692815 2.16987 
788 13.3974 40.7027 6.10473 0.0131356 -0.296069 -0.130879 -1.06605 -0.342981 -1.22839 
787 11.2732 41.8983 6.13882 0.269378 0.271315 -0.0867511 -0.751905 -0.2907 1.28277 
269 17.6567 35.8561 6.13392 -0.411765 0.361518 0.0944597 -1.61087 0.156889 0.0401011 
370 4.90868 33.2252 6.09765 0 0 0 0 0 0 
317 6.32667 25.8779 6.08245 0.0617209 0.000767204 0.0725758 0.61785 -0.397931 1.79842 
356 4.90868 30.7652 6.09765 0 0 0 0 0 0 
336 4.90868 28.3052 6.09765 0 0 0 0 0 0 
316 4.90868 25.8452 6.09765 0 0 0 0 0 0 
337 6.32134 28.3341 6.10561 0.160563 0.163119 -0.0403124 -1.08927 -0.552679 -1.21618 
338 7.03847 27.113 6.09726 -0.315791 0.0297711 -0.117869 0.712886 -0.263176 1.28934 
229 10.5618 35.7783 6.09227 -0.0619215 -0.194527 0.00427533 -1.06058 0.977564 -0.00884214 
230 12.6875 34.5736 6.06621 0.248998 0.123189 -0.0124634 0.442785 -0.830872 -0.0817285 
216 10.5598 33.3307 6.08933 -0.205557 -0.228253 -0.0933602 -0.227325 0.559291 -1.08357 
358 7.02744 29.5703 6.11884 0.0875325 -0.275003 -0.0439894 -1.443 -1.29749 -0.429208 
373 8.44662 32.0459 6.09558 -0.215995 0.446193 0.0773724 -0.919739 0.319985 0.241892 
357 6.32868 30.7937 6.11037 -0.494527 -0.129685 -0.0837576 0.260727 -0.273132 -0.0657572 
372 7.02943 32.0192 6.0925 0.157251 0.317727 0.0852206 0.551548 0.361625 -0.68913 
248 19.0641 33.4525 6.09908 0.228203 0.114943 0.0127639 0.0499872 -0.67008 -0.608252 
252 17.6481 33.4166 6.12278 0.356334 -0.06833 -0.127899 0.951242 0.42048 0.450842 
218 14.817 30.9448 6.0824 -0.256838 -0.153578 -0.137603 -0.685063 0.0797739 0.418243 
236 15.5381 32.1582 6.06636 -0.471228 0.545279 0.100464 -0.50398 1.36826 -1.22146 
231 14.8212 33.3863 6.09011 0.189801 -0.323031 -0.170354 0.477249 1.97294 -1.92134 
253 19.791 32.2427 6.0662 -0.278962 -0.0144583 0.0945164 0.858216 1.62585 -1.17323 
235 13.4096 33.3571 6.06478 -0.394744 0.0668811 0.0401258 -0.060801 -0.671673 1.48111 
232 16.9445 32.1927 6.07835 0.203145 0.166489 0.0501352 -0.506892 -0.937748 -2.01292 
259 4.90868 40.6052 6.09765 0 0 0 0 0 0 
273 4.90868 43.0652 6.09765 0 0 0 0 0 0 
377 4.90868 35.6852 6.09765 0 0 0 0 0 0 
382 4.90868 38.1452 6.09765 0 0 0 0 0 0 
234 11.2726 34.5537 6.05854 -0.0842904 0.113757 0.157895 0.307111 -0.0391008 0.498073 
386 9.14208 35.7459 6.10603 0.0972776 -0.157711 -0.0220848 0.126562 0.0985474 0.84215 
261 10.5665 40.6734 6.11567 -0.173435 -0.304049 0.0639844 0.677206 0.486769 -0.851369 
250 13.404 35.7973 6.09472 -0.0886768 -0.109523 -0.105565 -1.84049 1.58249 -2.51517 
249 11.2745 37.0062 6.12062 0.376313 -0.537505 -0.2125 -0.134711 -1.3519 1.19938 
245 12.6976 37.0164 6.09273 -0.463251 0.328113 0.0987888 0.996147 -1.21198 -0.210131 
277 9.14837 40.6392 6.13214 0.070938 0.242506 0.021547 0.867835 0.154854 0.197391 
266 11.2768 39.4482 6.10749 -0.228826 0.0696029 -0.0566023 1.00875 -0.74238 -0.357522 
387 7.02551 39.3998 6.12312 -0.0162281 -0.146167 0.045153 1.06942 0.776628 -0.0172196 