ITEM: TIMESTEP
4800
ITEM: NUMBER OF ATOMS
4798
ITEM: BOX BOUNDS ff ff ff
-10.3577 110.358
-10.0998 131.9
-100.402 112.598
ITEM: ATOMS id x y z fx fy fz vx vy vz 
72 -0.062301 2.4752 6.09765 0 0 0 0 0 0 
110 4.19854 7.39519 6.09765 0 0 0 0 0 0 
109 2.77826 7.39519 6.09765 0 0 0 0 0 0 
93 4.19854 4.9352 6.09765 0 0 0 0 0 0 
92 2.77826 4.9352 6.09765 0 0 0 0 0 0 
91 2.06812 6.16519 6.09765 0 0 0 0 0 0 
87 0.647839 6.16519 6.09765 0 0 0 0 0 0 
86 -0.062301 7.39519 6.09765 0 0 0 0 0 0 
81 4.19854 2.4752 6.09765 0 0 0 0 0 0 
80 2.77826 2.4752 6.09765 0 0 0 0 0 0 
79 2.06812 3.7052 6.09765 0 0 0 0 0 0 
78 0.647839 3.7052 6.09765 0 0 0 0 0 0 
77 -0.062301 4.9352 6.09765 0 0 0 0 0 0 
76 4.19854 0.015197 6.09765 0 0 0 0 0 0 
75 2.77826 0.015197 6.09765 0 0 0 0 0 0 
74 2.06812 1.2452 6.09765 0 0 0 0 0 0 
73 0.647839 1.2452 6.09765 0 0 0 0 0 0 
6 -0.062301 12.3152 6.09765 0 0 0 0 0 0 
131 4.19854 12.3152 6.09765 0 0 0 0 0 0 
130 2.77826 12.3152 6.09765 0 0 0 0 0 0 
124 4.19854 9.85519 6.09765 0 0 0 0 0 0 
123 2.77826 9.85519 6.09765 0 0 0 0 0 0 
122 2.06812 11.0852 6.09765 0 0 0 0 0 0 
117 0.647839 11.0852 6.09765 0 0 0 0 0 0 
108 2.06812 8.62519 6.09765 0 0 0 0 0 0 
100 0.647839 8.62519 6.09765 0 0 0 0 0 0 
99 -0.062301 9.85519 6.09765 0 0 0 0 0 0 
34 4.19854 14.7752 6.09765 0 0 0 0 0 0 
33 2.77826 14.7752 6.09765 0 0 0 0 0 0 
32 2.06812 16.0052 6.09765 0 0 0 0 0 0 
31 0.647839 16.0052 6.09765 0 0 0 0 0 0 
19 2.06812 13.5452 6.09765 0 0 0 0 0 0 
18 0.647839 13.5452 6.09765 0 0 0 0 0 0 
17 -0.062301 14.7752 6.09765 0 0 0 0 0 0 
300 4.19854 24.6152 6.09765 0 0 0 0 0 0 
299 2.77826 24.6152 6.09765 0 0 0 0 0 0 
204 4.19854 22.1552 6.09765 0 0 0 0 0 0 
203 2.77826 22.1552 6.09765 0 0 0 0 0 0 
202 2.06812 23.3852 6.09765 0 0 0 0 0 0 
191 0.647839 23.3852 6.09765 0 0 0 0 0 0 
190 -0.062301 24.6152 6.09765 0 0 0 0 0 0 
71 2.06812 20.9252 6.09765 0 0 0 0 0 0 
70 0.647839 20.9252 6.09765 0 0 0 0 0 0 
69 -0.062301 22.1552 6.09765 0 0 0 0 0 0 
63 4.19854 19.6952 6.09765 0 0 0 0 0 0 
62 2.77826 19.6952 6.09765 0 0 0 0 0 0 
49 4.19854 17.2352 6.09765 0 0 0 0 0 0 
48 2.77826 17.2352 6.09765 0 0 0 0 0 0 
47 2.06812 18.4652 6.09765 0 0 0 0 0 0 
46 0.647839 18.4652 6.09765 0 0 0 0 0 0 
45 -0.062301 19.6952 6.09765 0 0 0 0 0 0 
30 -0.062301 17.2352 6.09765 0 0 0 0 0 0 
355 4.19854 31.9952 6.09765 0 0 0 0 0 0 
354 2.77826 31.9952 6.09765 0 0 0 0 0 0 
353 2.06812 33.2252 6.09765 0 0 0 0 0 0 
344 0.647839 33.2252 6.09765 0 0 0 0 0 0 
335 4.19854 29.5352 6.09765 0 0 0 0 0 0 
334 2.77826 29.5352 6.09765 0 0 0 0 0 0 
333 2.06812 30.7652 6.09765 0 0 0 0 0 0 
326 0.647839 30.7652 6.09765 0 0 0 0 0 0 
325 -0.062301 31.9952 6.09765 0 0 0 0 0 0 
315 4.19854 27.0752 6.09765 0 0 0 0 0 0 
314 2.77826 27.0752 6.09765 0 0 0 0 0 0 
313 2.06812 28.3052 6.09765 0 0 0 0 0 0 
308 0.647839 28.3052 6.09765 0 0 0 0 0 0 
307 -0.062301 29.5352 6.09765 0 0 0 0 0 0 
298 2.06812 25.8452 6.09765 0 0 0 0 0 0 
297 0.647839 25.8452 6.09765 0 0 0 0 0 0 
296 -0.062301 27.0752 6.09765 0 0 0 0 0 0 
215 -0.062301 36.9152 6.09765 0 0 0 0 0 0 
376 4.19854 36.9152 6.09765 0 0 0 0 0 0 
375 2.77826 36.9152 6.09765 0 0 0 0 0 0 
369 4.19854 34.4552 6.09765 0 0 0 0 0 0 
368 2.77826 34.4552 6.09765 0 0 0 0 0 0 
367 2.06812 35.6852 6.09765 0 0 0 0 0 0 
362 0.647839 35.6852 6.09765 0 0 0 0 0 0 
343 -0.062301 34.4552 6.09765 0 0 0 0 0 0 
258 4.19854 41.8352 6.09765 0 0 0 0 0 0 
257 2.77826 41.8352 6.09765 0 0 0 0 0 0 
256 2.06812 43.0652 6.09765 0 0 0 0 0 0 
255 0.647839 43.0652 6.09765 0 0 0 0 0 0 
243 4.19854 39.3752 6.09765 0 0 0 0 0 0 
242 2.77826 39.3752 6.09765 0 0 0 0 0 0 
241 2.06812 40.6052 6.09765 0 0 0 0 0 0 
240 0.647839 40.6052 6.09765 0 0 0 0 0 0 
239 -0.062301 41.8352 6.09765 0 0 0 0 0 0 
228 2.06812 38.1452 6.09765 0 0 0 0 0 0 
227 0.647839 38.1452 6.09765 0 0 0 0 0 0 
226 -0.062301 39.3752 6.09765 0 0 0 0 0 0 
254 -0.062301 44.2952 6.09765 0 0 0 0 0 0 
905 4.19854 51.6752 6.09765 0 0 0 0 0 0 
904 2.77826 51.6752 6.09765 0 0 0 0 0 0 
890 4.19854 49.2152 6.09765 0 0 0 0 0 0 
889 2.77826 49.2152 6.09765 0 0 0 0 0 0 
888 2.06812 50.4452 6.09765 0 0 0 0 0 0 
887 0.647839 50.4452 6.09765 0 0 0 0 0 0 
886 -0.062301 51.6752 6.09765 0 0 0 0 0 0 
794 4.19854 46.7552 6.09765 0 0 0 0 0 0 
793 2.77826 46.7552 6.09765 0 0 0 0 0 0 
792 2.06812 47.9852 6.09765 0 0 0 0 0 0 
781 0.647839 47.9852 6.09765 0 0 0 0 0 0 
780 -0.062301 49.2152 6.09765 0 0 0 0 0 0 
280 2.06812 45.5252 6.09765 0 0 0 0 0 0 
279 0.647839 45.5252 6.09765 0 0 0 0 0 0 
278 -0.062301 46.7552 6.09765 0 0 0 0 0 0 
272 4.19854 44.2952 6.09765 0 0 0 0 0 0 
271 2.77826 44.2952 6.09765 0 0 0 0 0 0 
959 4.19854 59.0552 6.09765 0 0 0 0 0 0 
958 2.77826 59.0552 6.09765 0 0 0 0 0 0 
957 2.06812 60.2852 6.09765 0 0 0 0 0 0 
952 0.647839 60.2852 6.09765 0 0 0 0 0 0 
945 4.19854 56.5952 6.09765 0 0 0 0 0 0 
944 2.77826 56.5952 6.09765 0 0 0 0 0 0 
943 2.06812 57.8252 6.09765 0 0 0 0 0 0 
934 0.647839 57.8252 6.09765 0 0 0 0 0 0 
933 -0.062301 59.0552 6.09765 0 0 0 0 0 0 
925 4.19854 54.1352 6.09765 0 0 0 0 0 0 
924 2.77826 54.1352 6.09765 0 0 0 0 0 0 
923 2.06812 55.3652 6.09765 0 0 0 0 0 0 
916 0.647839 55.3652 6.09765 0 0 0 0 0 0 
915 -0.062301 56.5952 6.09765 0 0 0 0 0 0 
903 2.06812 52.9052 6.09765 0 0 0 0 0 0 
898 0.647839 52.9052 6.09765 0 0 0 0 0 0 
897 -0.062301 54.1352 6.09765 0 0 0 0 0 0 
805 -0.062301 61.5152 6.09765 0 0 0 0 0 0 
966 4.19854 61.5152 6.09765 0 0 0 0 0 0 
965 2.77826 61.5152 6.09765 0 0 0 0 0 0 
862 4.19854 68.8952 6.09765 0 0 0 0 0 0 
861 2.77826 68.8952 6.09765 0 0 0 0 0 0 
848 4.19854 66.4352 6.09765 0 0 0 0 0 0 
847 2.77826 66.4352 6.09765 0 0 0 0 0 0 
846 2.06812 67.6652 6.09765 0 0 0 0 0 0 
845 0.647839 67.6652 6.09765 0 0 0 0 0 0 
844 -0.062301 68.8952 6.09765 0 0 0 0 0 0 
833 4.19854 63.9752 6.09765 0 0 0 0 0 0 
832 2.77826 63.9752 6.09765 0 0 0 0 0 0 
831 2.06812 65.2052 6.09765 0 0 0 0 0 0 
830 0.647839 65.2052 6.09765 0 0 0 0 0 0 
829 -0.062301 66.4352 6.09765 0 0 0 0 0 0 
818 2.06812 62.7452 6.09765 0 0 0 0 0 0 
817 0.647839 62.7452 6.09765 0 0 0 0 0 0 
816 -0.062301 63.9752 6.09765 0 0 0 0 0 0 
1828 4.19854 76.2752 6.09765 0 0 0 0 0 0 
1827 2.77826 76.2752 6.09765 0 0 0 0 0 0 
1826 2.06812 77.5052 6.09765 0 0 0 0 0 0 
1821 0.647839 77.5052 6.09765 0 0 0 0 0 0 
1813 4.19854 73.8152 6.09765 0 0 0 0 0 0 
1812 2.77826 73.8152 6.09765 0 0 0 0 0 0 
1811 2.06812 75.0452 6.09765 0 0 0 0 0 0 
1810 0.647839 75.0452 6.09765 0 0 0 0 0 0 
1809 -0.062301 76.2752 6.09765 0 0 0 0 0 0 
1717 4.19854 71.3552 6.09765 0 0 0 0 0 0 
1716 2.77826 71.3552 6.09765 0 0 0 0 0 0 
1715 2.06812 72.5852 6.09765 0 0 0 0 0 0 
1704 0.647839 72.5852 6.09765 0 0 0 0 0 0 
1703 -0.062301 73.8152 6.09765 0 0 0 0 0 0 
870 2.06812 70.1252 6.09765 0 0 0 0 0 0 
869 0.647839 70.1252 6.09765 0 0 0 0 0 0 
868 -0.062301 71.3552 6.09765 0 0 0 0 0 0 
1728 -0.062301 86.1152 6.09765 0 0 0 0 0 0 
1889 4.19854 86.1152 6.09765 0 0 0 0 0 0 
1888 2.77826 86.1152 6.09765 0 0 0 0 0 0 
1882 4.19854 83.6552 6.09765 0 0 0 0 0 0 
1881 2.77826 83.6552 6.09765 0 0 0 0 0 0 
1880 2.06812 84.8852 6.09765 0 0 0 0 0 0 
1875 0.647839 84.8852 6.09765 0 0 0 0 0 0 
1868 4.19854 81.1952 6.09765 0 0 0 0 0 0 
1867 2.77826 81.1952 6.09765 0 0 0 0 0 0 
1866 2.06812 82.4252 6.09765 0 0 0 0 0 0 
1857 0.647839 82.4252 6.09765 0 0 0 0 0 0 
1856 -0.062301 83.6552 6.09765 0 0 0 0 0 0 
1848 4.19854 78.7352 6.09765 0 0 0 0 0 0 
1847 2.77826 78.7352 6.09765 0 0 0 0 0 0 
1846 2.06812 79.9652 6.09765 0 0 0 0 0 0 
1839 0.647839 79.9652 6.09765 0 0 0 0 0 0 
1838 -0.062301 81.1952 6.09765 0 0 0 0 0 0 
1820 -0.062301 78.7352 6.09765 0 0 0 0 0 0 
1741 2.06812 87.3452 6.09765 0 0 0 0 0 0 
1740 0.647839 87.3452 6.09765 0 0 0 0 0 0 
2677 4.19854 95.9552 6.09765 0 0 0 0 0 0 
2676 2.77826 95.9552 6.09765 0 0 0 0 0 0 
1793 2.06812 94.7252 6.09765 0 0 0 0 0 0 
1792 0.647839 94.7252 6.09765 0 0 0 0 0 0 
1791 -0.062301 95.9552 6.09765 0 0 0 0 0 0 
1785 4.19854 93.4952 6.09765 0 0 0 0 0 0 
1784 2.77826 93.4952 6.09765 0 0 0 0 0 0 
1771 4.19854 91.0352 6.09765 0 0 0 0 0 0 
1770 2.77826 91.0352 6.09765 0 0 0 0 0 0 
1769 2.06812 92.2652 6.09765 0 0 0 0 0 0 
1768 0.647839 92.2652 6.09765 0 0 0 0 0 0 
1767 -0.062301 93.4952 6.09765 0 0 0 0 0 0 
1756 4.19854 88.5752 6.09765 0 0 0 0 0 0 
1755 2.77826 88.5752 6.09765 0 0 0 0 0 0 
1754 2.06812 89.8052 6.09765 0 0 0 0 0 0 
1753 0.647839 89.8052 6.09765 0 0 0 0 0 0 
1752 -0.062301 91.0352 6.09765 0 0 0 0 0 0 
1739 -0.062301 88.5752 6.09765 0 0 0 0 0 0 
2663 -0.062301 98.4152 6.09765 0 0 0 0 0 0 
2808 4.19854 103.335 6.09765 0 0 0 0 0 0 
2807 2.77826 103.335 6.09765 0 0 0 0 0 0 
2806 2.06812 104.565 6.09765 0 0 0 0 0 0 
2799 0.647839 104.565 6.09765 0 0 0 0 0 0 
2788 4.19854 100.875 6.09765 0 0 0 0 0 0 
2787 2.77826 100.875 6.09765 0 0 0 0 0 0 
2786 2.06812 102.105 6.09765 0 0 0 0 0 0 
2781 0.647839 102.105 6.09765 0 0 0 0 0 0 
2780 -0.062301 103.335 6.09765 0 0 0 0 0 0 
2773 4.19854 98.4152 6.09765 0 0 0 0 0 0 
2772 2.77826 98.4152 6.09765 0 0 0 0 0 0 
2771 2.06812 99.6452 6.09765 0 0 0 0 0 0 
2770 0.647839 99.6452 6.09765 0 0 0 0 0 0 
2769 -0.062301 100.875 6.09765 0 0 0 0 0 0 
2675 2.06812 97.1852 6.09765 0 0 0 0 0 0 
2664 0.647839 97.1852 6.09765 0 0 0 0 0 0 
2849 4.19854 110.715 6.09765 0 0 0 0 0 0 
2848 2.77826 110.715 6.09765 0 0 0 0 0 0 
2842 4.19854 108.255 6.09765 0 0 0 0 0 0 
2841 2.77826 108.255 6.09765 0 0 0 0 0 0 
2840 2.06812 109.485 6.09765 0 0 0 0 0 0 
2835 0.647839 109.485 6.09765 0 0 0 0 0 0 
2828 4.19854 105.795 6.09765 0 0 0 0 0 0 
2827 2.77826 105.795 6.09765 0 0 0 0 0 0 
2826 2.06812 107.025 6.09765 0 0 0 0 0 0 
2817 0.647839 107.025 6.09765 0 0 0 0 0 0 
2816 -0.062301 108.255 6.09765 0 0 0 0 0 0 
2798 -0.062301 105.795 6.09765 0 0 0 0 0 0 
2716 4.19854 113.175 6.09765 0 0 0 0 0 0 
2715 2.77826 113.175 6.09765 0 0 0 0 0 0 
2701 2.06812 111.945 6.09765 0 0 0 0 0 0 
2700 0.647839 111.945 6.09765 0 0 0 0 0 0 
2699 -0.062301 113.175 6.09765 0 0 0 0 0 0 
2688 -0.062301 110.715 6.09765 0 0 0 0 0 0 
2712 -0.062301 115.635 6.09765 0 0 0 0 0 0 
3636 4.19854 120.555 6.09765 0 0 0 0 0 0 
3635 2.77826 120.555 6.09765 0 0 0 0 0 0 
3634 2.06812 121.785 6.09765 0 0 0 0 0 0 
3623 0.647839 121.785 6.09765 0 0 0 0 0 0 
2753 2.06812 119.325 6.09765 0 0 0 0 0 0 
2752 0.647839 119.325 6.09765 0 0 0 0 0 0 
2751 -0.062301 120.555 6.09765 0 0 0 0 0 0 
2745 4.19854 118.095 6.09765 0 0 0 0 0 0 
2744 2.77826 118.095 6.09765 0 0 0 0 0 0 
2731 4.19854 115.635 6.09765 0 0 0 0 0 0 
2730 2.77826 115.635 6.09765 0 0 0 0 0 0 
2729 2.06812 116.865 6.09765 0 0 0 0 0 0 
2728 0.647839 116.865 6.09765 0 0 0 0 0 0 
2727 -0.062301 118.095 6.09765 0 0 0 0 0 0 
2714 2.06812 114.405 6.09765 0 0 0 0 0 0 
2713 0.647839 114.405 6.09765 0 0 0 0 0 0 
95 6.3324 3.80272 6.13596 0.332834 -0.339321 -0.0287688 -1.0053 0.614858 0.239888 
90 11.5081 0.447112 6.0181 0.347939 -0.203125 -0.0264696 -1.09968 -0.672842 -0.84115 
96 7.07651 2.59295 6.12191 -0.219216 0.244731 -0.101901 -0.119626 1.29658 -0.838713 
104 17.1866 0.701366 5.84002 0.59563 0.233669 0.0941326 0.073439 1.88765 -1.20396 
113 7.05545 5.04021 6.14322 0.163543 -0.17072 -0.0655077 -0.119096 -0.503217 -1.45237 
97 8.5216 2.69546 6.07846 0.0533332 0.518056 0.0655988 -0.818019 -0.153996 1.20931 
112 6.32528 6.24722 6.14058 0.376871 0.107467 -0.116497 -1.63728 -0.791792 0.820139 
128 8.47538 7.56883 6.10818 -0.156969 0.0150137 0.0991963 -0.659832 -2.42461 1.09172 
88 10.7062 1.59664 6.03597 -0.419992 0.336476 -0.00020585 -0.296582 0.252223 0.252554 
127 7.05829 7.48151 6.1334 -0.40535 0.104617 -0.138473 -1.47079 -1.06172 1.06503 
118 11.3731 5.25033 6.11397 -0.432121 -0.123338 0.0551735 -1.24928 0.690465 0.797578 
115 9.2338 3.93634 6.07801 -0.136689 -0.0392099 0.0919569 -0.295613 0.190519 -1.00811 
129 9.20003 6.36283 6.1129 0.17567 -0.00815421 0.135546 -0.215568 1.11525 -1.7761 
101 10.6637 4.02627 6.08105 -0.0520495 -0.478507 0.00502667 -0.940942 -0.157745 -1.77142 
114 8.48161 5.13273 6.12103 0.0763436 -0.165032 -0.0277501 1.22263 1.7358 0.0431847 
1 10.6214 6.4404 6.14039 0.229467 0.414659 -0.128167 -0.658858 0.401076 1.34217 
2 12.7844 5.30788 6.13802 0.345739 0.0675766 -0.091497 -0.943785 -0.460457 0.795036 
105 11.4196 2.82654 6.05931 -0.199225 0.347347 -0.0369615 1.4017 -0.288898 -1.86599 
94 4.90868 3.7052 6.09765 0 0 0 0 0 0 
111 4.90868 6.16519 6.09765 0 0 0 0 0 0 
82 4.90868 1.2452 6.09765 0 0 0 0 0 0 
4 17.1315 3.07463 6.12374 -0.203995 -0.227075 -0.0895359 0.309045 0.340364 -0.521999 
5 19.2761 1.94877 6.29851 0.252901 -0.191527 -0.0242174 -0.565613 0.589459 -0.481564 
89 12.8743 0.509676 6.15321 0.428827 0.344166 -0.0779923 1.21804 0.322808 -0.561291 
121 17.899 1.89284 6.10441 -0.0753649 -0.43124 -0.066858 -0.129455 1.80209 -0.780149 
119 13.5428 4.12099 6.13636 -0.500241 0.2339 -0.163667 0.728167 0.892569 -0.887117 
28 17.7758 6.7039 6.11977 -0.0217215 -0.159188 -0.0387705 -0.738924 0.943328 -0.606779 
106 13.6261 1.71148 6.062 -0.187128 -0.396774 0.116694 0.926103 2.09509 1.32795 
102 12.8522 2.89641 6.06185 -0.0200889 -0.0539468 0.170183 0.446337 0.670418 -1.33197 
120 15.7054 3.00792 6.12436 0.253812 -0.0131158 -0.00624079 1.21312 -0.439295 -0.0751715 
103 15.0272 1.76906 6.06141 -0.654511 0.207631 0.0963523 0.680531 -1.46259 -0.565321 
9 14.9117 6.60537 6.09314 -0.152408 0.179588 0.15026 -1.05994 -0.358157 -0.17369 
10 17.0751 5.48166 6.13341 0.100782 -0.223434 -0.0882652 1.14263 -0.581564 0.516864 
24 19.1889 6.76182 6.0971 0.0859091 0.0799944 -0.0329339 -0.332155 -1.18578 0.293604 
107 15.8397 0.627329 6.05959 -0.27482 -0.219557 0.0198273 -1.75667 1.01031 -0.7229 
3 14.9479 4.19236 6.13703 0.720072 0.0943115 -0.0104491 -0.834989 0.704408 1.58439 
15 17.8267 4.28729 6.11766 -0.138883 0.76513 0.0833447 2.67232 0.421894 0.68306 
13 13.4895 6.53223 6.11469 0.121495 0.348807 -0.013308 -0.510691 0.00042278 1.04556 
14 15.6588 5.41733 6.1196 -0.176829 -0.263977 0.0415988 -0.509019 0.613583 -0.342078 
11 19.2385 4.35189 6.12097 0.0961702 0.00363419 -0.0417553 0.10381 0.0671489 0.72021 
85 8.57002 0.329282 5.90325 -0.412852 -0.363055 -0.018195 -2.1875 0.526445 1.15066 
83 6.33562 1.34144 6.08868 0.771681 -0.0524162 -0.143022 0.196363 0.272392 0.358399 
84 7.19623 0.200514 5.99506 -0.221828 0.540048 0.113216 -0.333028 -1.66508 -1.03899 
98 9.30107 1.51897 6.02417 0.445921 0.156632 -0.0538605 -0.80215 0.375545 0.311241 
51 6.32396 16.0663 6.09224 -0.0131124 -0.0606792 -0.0260375 0.913458 0.653053 -0.435324 
25 11.3172 10.1164 6.1174 -0.0907519 -0.208548 -0.0557129 -2.84726 0.511023 -1.02132 
136 9.18872 8.80197 6.12771 -0.0697945 0.16023 -0.164233 0.611851 -0.124796 0.34091 
144 9.17874 13.7041 6.0857 -0.279252 -0.286465 0.0327256 -1.40145 0.357576 -1.70046 
12 11.3294 7.68352 6.13248 0.212408 -0.686347 -0.0360585 -0.330657 0.0333976 -0.179257 
7 10.6014 8.88305 6.10425 0.163177 0.24094 0.20312 -0.484888 1.46821 0.58809 
36 12.7225 12.6032 6.09287 0.465684 0.16931 -0.0886074 -2.69075 0.731766 -1.10495 
142 7.03625 14.8454 6.0798 0.273009 0.286557 -0.0086128 -0.725821 1.16727 1.14025 
143 8.45476 14.9186 6.08794 -0.0894981 -0.632365 -0.00415053 0.0627557 0.559658 -1.66812 
140 8.46202 12.4665 6.08909 -0.188615 -0.270733 -0.0101364 -0.234865 0.0704495 -0.664641 
35 10.5942 13.7596 6.09108 -0.15208 -0.153222 -0.0142932 1.51123 1.392 1.19682 
295 9.15017 21.0319 6.07654 -0.0617252 0.0254681 0.0709488 1.07825 0.54038 1.44537 
209 9.16189 18.5792 6.09108 0.151506 0.187878 0.0470687 0.395293 -0.458733 -1.68285 
281 10.5623 21.0694 6.09122 0.0951414 0.669366 -0.0686718 0.480663 0.418958 -1.06089 
207 7.04223 19.7475 6.09869 -0.367075 0.0915862 -0.0206222 0.652774 0.902189 1.67554 
206 6.32508 20.9676 6.07724 -0.103145 0.0108584 0.162669 0.227076 -1.47708 -1.41492 
65 6.33085 18.5154 6.11543 -0.449435 0.276431 -0.0835641 0.741123 -0.7887 0.143468 
294 8.43762 22.2548 6.09081 0.0359866 -0.334347 -0.0950669 -1.01902 -0.0397307 0.0892503 
208 8.45228 19.7952 6.09414 -0.0980412 0.123109 -0.061147 0.535352 1.21427 0.396365 
293 7.02177 22.2052 6.08844 0.285729 0.131794 -0.0683807 -0.0684834 -0.0104667 -1.84317 
67 8.45618 17.3488 6.1217 -0.0645098 0.0184045 -0.111633 -0.113271 -0.768269 -0.892047 
66 7.03837 17.3044 6.10311 0.14575 -0.618527 0.0397329 -0.261078 -0.603673 -1.10654 
303 19.0739 18.8527 6.06835 0.137331 0.43555 -0.0525079 1.01585 0.260937 1.83638 
137 4.90868 13.5452 6.09765 0 0 0 0 0 0 
132 4.90868 11.0852 6.09765 0 0 0 0 0 0 
125 4.90868 8.62519 6.09765 0 0 0 0 0 0 
50 4.90868 16.0052 6.09765 0 0 0 0 0 0 
198 13.4273 16.2699 6.07077 -0.293929 -0.35632 0.174197 0.0219458 2.01372 -0.388328 
60 17.7216 11.5379 6.07372 -0.0548974 -0.0321379 0.0912058 1.83121 -0.989535 1.14628 
59 15.574 12.6812 6.10549 -0.14491 -0.0196953 -0.102048 0.632273 -0.23753 -1.48509 
58 13.4393 13.8323 6.07019 -0.441202 -0.385096 0.161202 0.494847 -0.319226 0.895223 
56 19.1389 11.5891 6.0623 -0.334225 0.27693 0.0844593 1.33867 -0.81842 -0.399796 
138 6.33088 13.612 6.06641 -0.535441 -0.202145 0.0571973 1.09757 0.719879 0.272111 
194 14.8415 16.3134 6.06521 -0.177012 0.259768 0.016282 -1.33733 0.430787 -1.30482 
53 12.7166 15.0341 6.10888 -0.0878572 0.518651 -0.208688 0.151546 1.47334 -0.885371 
195 16.9727 15.1653 6.08753 0.487148 0.0296169 -0.0130809 -0.335425 1.2002 1.32381 
43 17.7295 9.12143 6.07335 0.495427 -0.19208 -0.000282671 -0.434546 -1.62898 -0.871787 
42 15.5889 10.2588 6.11569 0.141035 -0.431149 -0.0168951 -0.668415 -0.0219098 -0.504967 
196 19.1154 14.0161 6.11042 0.00866826 -0.143468 0.04283 -0.615243 0.0332605 -1.31252 
39 19.1537 9.18697 6.05004 -0.576216 -0.207871 0.104905 1.59794 -1.48581 2.04647 
285 19.1003 16.443 6.10406 -0.165975 -0.376598 -0.0775242 -1.14552 0.758366 -0.00876761 
38 17.0044 10.3206 6.10404 -0.157053 0.0150513 -0.151119 -0.212027 1.25156 -0.129022 
26 13.4602 8.96517 6.12932 0.241685 0.131385 -0.161445 -0.120136 -0.383516 0.152728 
22 14.8863 9.02398 6.10225 -0.488983 0.602121 0.145005 -1.72519 0.544535 0.435815 
23 17.0307 7.88889 6.09323 0.0919895 0.539414 -0.0106047 -0.595864 -1.02353 -1.15109 
27 15.6179 7.83235 6.10001 -0.0418627 -0.340921 -0.0273642 -0.428171 0.246265 -0.622695 
289 17.691 16.3894 6.08296 -0.584838 0.0243517 0.114946 -0.978251 -1.58985 1.43309 
57 11.2992 14.9838 6.10118 0.366321 -0.00226645 0.0488425 -1.23764 1.22617 1.62807 
41 13.4481 11.3942 6.11196 0.0151005 0.324016 -0.062931 0.660986 1.57261 0.882906 
199 15.5666 15.11 6.06596 -0.499761 -0.202429 0.0375094 0.521588 1.74191 -0.353211 
21 12.7305 10.178 6.10793 0.234364 -0.519264 0.129695 0.670464 0.0651734 -0.354048 
37 14.8625 11.4554 6.11023 -0.163193 0.229175 0.0705122 -0.873217 1.13978 -0.663831 
54 14.842 13.8854 6.08332 0.810528 0.195938 -0.00321179 -0.868303 0.643291 -0.157185 
200 17.7 13.96 6.10836 0.0429741 0.0759859 -0.0668611 1.31678 -0.61261 -0.693851 
55 16.9883 12.7385 6.09196 0.111315 0.0355338 0.0247058 -1.14479 -0.399434 0.0162372 
40 11.3157 12.5498 6.07692 -0.433265 -0.0346847 0.11265 0.413026 -0.894759 0.089494 
52 10.5772 16.1881 6.11439 0.508681 0.493964 -0.0282718 -1.05665 1.37746 -0.963705 
139 7.03676 12.3912 6.06873 0.480085 0.0934584 0.0218378 0.898689 0.156687 -1.66509 
141 9.18631 11.2489 6.10526 -0.442853 0.148826 -0.0519879 0.773704 -1.64345 -0.527037 
20 10.5962 11.3266 6.10462 0.141274 -0.274864 -0.00502339 -0.288114 1.19657 -1.06038 
126 6.32811 8.69294 6.09168 0.123396 0.105805 0.144077 -1.25268 -0.412586 0.326372 
68 9.17439 16.1334 6.11463 -0.553135 0.407581 -0.0686081 0.659159 -2.09706 -0.681983 
135 8.46452 10.0134 6.09772 -0.0296296 -0.0130528 0.0443612 -0.39361 1.96852 -0.0103558 
134 7.04512 9.93207 6.09075 -0.0839885 0.418002 -0.0391422 0.658607 0.500045 -2.19454 
133 6.32099 11.1562 6.07041 0.305275 -0.373786 0.0759755 0.343783 1.44499 0.224185 
8 12.7521 7.73609 6.11966 -0.118919 0.0397041 0.0304239 0.143714 0.332124 -0.127203 
341 19.0606 23.7252 6.1043 0.287762 0.26274 0.000516871 -0.323817 -0.562036 0.597459 
324 19.7927 20.0807 6.06445 -0.339881 -0.2053 -0.00740295 -0.858185 0.553438 0.737073 
292 6.32481 23.4329 6.09011 -0.478542 -0.482617 0.111156 0.982735 0.459233 -1.22051 
306 19.8061 17.651 6.06373 0.233109 0.398186 0.15834 -1.32762 -0.466481 -0.860043 
205 4.90868 20.9252 6.09765 0 0 0 0 0 0 
291 4.90868 23.3852 6.09765 0 0 0 0 0 0 
64 4.90868 18.4652 6.09765 0 0 0 0 0 0 
301 14.8181 21.1927 6.12386 -0.361921 -0.36214 -0.0396435 -0.068225 -2.49676 -0.182911 
282 12.6959 19.9184 6.08753 -0.247072 -0.164526 -0.0329987 0.354528 1.84722 0.186327 
311 11.2701 22.3045 6.08157 0.0920797 -0.204636 0.133441 0.52954 0.841175 0.34265 
304 15.5293 19.9806 6.08838 -0.197263 -0.360395 -0.0560683 -1.03495 -1.10176 -0.84162 
284 16.9488 17.5921 6.09358 0.375581 -0.0937953 -0.14101 -2.66701 0.232691 1.29316 
286 11.2845 19.8698 6.08687 -0.0499892 -0.331403 0.0566586 1.52745 1.95202 0.12622 
287 13.4045 18.7047 6.05818 -0.145012 -0.159897 0.105052 -1.29615 1.35287 -1.36798 
288 15.5406 17.5427 6.05581 -0.148765 -0.083955 0.0894222 -0.112782 0.211738 -0.114336 
330 11.2693 24.7567 6.0852 -0.207578 -0.35049 0.0510772 1.15239 0.409032 2.58632 
352 17.648 23.6817 6.0872 0.0419532 0.154545 0.113327 -0.338285 -0.709431 -0.437572 
351 15.5272 24.8456 6.11992 -0.122323 0.461472 -0.0163309 -0.279485 -0.523717 1.03555 
348 16.9393 24.901 6.10867 -0.176129 -0.645067 -0.0605793 0.555965 -1.08298 1.52038 
332 15.5246 22.4088 6.11981 -0.0196457 0.483146 -0.0204581 0.262694 -1.81014 -1.93154 
331 13.3967 23.5891 6.13177 -0.410965 -0.537921 -0.192901 -0.880859 -1.5166 -1.49089 
329 14.8077 23.6271 6.13278 0.19656 -0.110607 -0.0450844 0.927829 -0.347923 0.522773 
323 17.6507 21.2566 6.05531 0.155582 -0.679126 0.0539425 0.145309 1.20136 2.32216 
283 14.81 18.7482 6.05214 0.679293 0.378569 0.125099 -0.440608 2.3313 0.293365 
321 16.9356 22.4578 6.08963 -0.0452704 0.373486 -0.0420981 -0.535362 -0.103031 0.309887 
312 13.4039 21.1374 6.1154 0.255264 0.187179 -0.0170125 -0.436981 0.85767 2.01703 
310 12.6864 22.3455 6.10425 0.0386937 0.677739 0.0466115 -0.0614147 -1.41738 0.263853 
192 10.5735 18.644 6.09574 0.0787245 -0.445677 -0.0019801 -1.12406 1.07817 -1.57571 
302 16.9392 20.0286 6.08591 0.13716 0.0501175 -0.115957 2.30968 0.885628 0.770573 
328 12.6734 24.8002 6.07613 0.686668 -0.121417 0.128337 0.520443 -0.513419 -1.40952 
322 19.0645 21.2889 6.04319 0.279196 0.212366 0.18169 -0.768763 -0.355644 0.685802 
342 19.7797 22.5153 6.09507 0.0674399 -0.158627 -0.11401 0.938165 -0.322999 -0.461357 
309 10.5586 23.5184 6.08963 0.102103 0.475605 -0.132011 -1.67154 0.713133 0.528435 
318 7.02181 24.6598 6.11987 0.208965 0.445053 -0.00519004 0.997865 0.384448 1.9086 
320 9.14429 23.4861 6.07965 0.0413799 -0.0309533 0.124216 -0.644572 -0.544804 -0.470992 
319 8.43685 24.7081 6.12712 0.0068203 -0.117292 -0.0308575 0.0742797 0.979956 0.118785 
361 19.7826 24.9529 6.13505 0.0415573 -0.501168 -0.0550071 2.09147 -1.8308 1.04102 
193 12.6981 17.4756 6.09691 0.220426 0.102372 -0.137 -1.84707 0.122198 0.552625 
197 11.287 17.4264 6.10475 -0.0807323 -0.190878 -0.0319985 0.401394 0.855706 0.631891 
305 17.652 18.8161 6.0803 0.564363 0.0423466 -0.0165333 -0.451303 1.2264 -0.111021 
371 6.31141 33.2571 6.09513 0.445087 -0.39607 -0.0424853 -1.19222 -1.29142 0.0196408 
350 13.3999 26.0198 6.07735 -0.304628 0.382963 0.229961 0.782394 1.26923 0.388289 
337 6.31532 28.3449 6.06281 0.383926 -0.548931 0.234487 0.0720769 0.110695 0.622554 
338 7.02097 27.108 6.11443 0.0372454 0.766996 -0.0311947 -0.522934 -1.05953 -1.43081 
357 6.3161 30.7914 6.08075 0.437002 0.297099 -0.0220688 -0.704606 0.00982036 1.35639 
232 16.9366 32.1919 6.21234 -0.0113535 0.897654 -0.133338 0.864187 1.75584 1.16684 
363 11.2776 29.6563 6.14903 -0.27645 -0.177767 -0.126323 -2.85082 -0.0581755 1.59531 
210 10.5611 30.8741 6.1199 -0.00768195 -0.0338866 0.160892 -0.199867 -1.80362 1.29077 
237 17.6522 30.9919 6.19273 0.0717827 -0.618098 0.0151405 0.156735 0.0763979 -0.0520271 
389 9.14238 38.1878 6.0391 -0.138593 0.459225 0.0788142 0.545545 -0.872681 0.955653 
384 7.01469 36.9478 6.08151 0.15072 -0.151021 -0.00158818 0.519161 0.588517 0.0820022 
378 6.32844 35.7061 6.09375 -0.431126 0.178281 -0.021971 -0.686335 1.0452 1.04253 
274 6.32139 43.0793 6.10307 -0.0365346 0.434507 -0.0244568 -0.836009 -2.32313 0.0112655 
379 7.02387 34.4768 6.08267 0.176513 0.158582 0.129015 1.16163 -0.311182 -1.75883 
787 11.2764 41.9023 6.09619 -0.358987 -0.028203 -0.0738438 0.0648164 0.303201 1.13478 
380 8.43855 34.4907 6.11516 0.0217046 0.810886 -0.151427 1.1861 0.716218 -1.35313 
260 6.32424 40.6293 6.106 -0.28383 0.351257 -0.13466 0.43955 0.36076 0.617925 
385 8.42599 36.9623 6.08081 0.160132 0.176394 -0.0995074 0.733974 1.20394 -2.30156 
275 7.0254 41.8628 6.10275 0.00698434 -0.387268 0.024009 0.668196 1.09105 -1.16295 
229 10.5516 35.7706 6.09489 -0.06428 0.0376164 0.0936645 0.0383962 -0.588485 -1.90687 
386 9.1294 35.7391 6.0897 0.30171 -0.342438 0.0435068 0.118272 0.253082 -2.18749 
249 11.266 36.999 6.08439 -0.192423 0.147962 -0.0770295 0.572659 0.55226 0.106241 
388 8.44093 39.4236 6.05301 0.0249081 -0.0250895 0.0526031 -1.68219 0.409032 1.9542 
276 8.4361 41.8777 6.10205 0.228104 0.285524 -0.080749 1.91784 0.598684 2.22702 
370 4.90868 33.2252 6.09765 0 0 0 0 0 0 
317 6.31313 25.8845 6.12428 0.252063 -0.319596 -0.0953055 0.351141 -0.0222217 0.355083 
356 4.90868 30.7652 6.09765 0 0 0 0 0 0 
336 4.90868 28.3052 6.09765 0 0 0 0 0 0 
316 4.90868 25.8452 6.09765 0 0 0 0 0 0 
359 8.44233 29.6072 6.10832 -0.110356 -0.0397434 0.0508406 -0.260689 -0.0938551 0.438611 
360 9.14494 28.3854 6.16852 0.281055 0.150682 -0.220815 0.771392 1.51104 0.951222 
349 11.2831 27.2083 6.14539 -0.390544 -0.161953 -0.101591 -0.475666 1.33935 -0.304503 
216 10.5714 33.3177 6.14239 -0.263218 0.202747 -0.0693623 1.37269 -0.196948 -1.03935 
358 7.03266 29.5701 6.06898 -0.342699 0.0792008 0.102056 -0.26111 -0.689525 1.11997 
373 8.44146 32.0613 6.12245 -0.268671 -0.147223 -0.139438 -0.386497 -0.319581 1.61007 
340 9.15282 25.9338 6.16794 -0.0125109 0.362618 -0.17821 1.32656 0.201462 -0.474708 
372 7.02213 32.0316 6.08234 0.0108894 -0.0938207 0.113199 -1.30315 0.688279 0.382288 
248 19.0651 33.4578 6.16543 -0.107344 -0.226271 0.0485979 -0.221143 0.624538 -0.543929 
252 17.6521 33.4215 6.18404 -0.312874 -0.0678844 0.00432338 0.54018 -0.216368 0.115624 
218 14.8108 30.9464 6.16774 0.13909 0.357366 -0.0204101 -1.21639 0.298666 -1.11038 
236 15.5237 32.1785 6.17891 -0.153593 -0.391215 0.0248514 -0.328168 1.99282 -0.898851 
231 14.8073 33.3931 6.17947 -0.0494174 -0.175349 -0.0834125 -0.28161 -0.467623 -0.253782 
253 19.7804 32.2447 6.17035 -0.155901 -0.276206 0.0660636 -1.38675 -0.0442319 -0.54586 
235 13.3899 33.3595 6.15987 0.195265 0.16946 0.107481 -0.0144794 -1.15968 -1.5126 
345 10.5619 28.4225 6.13665 0.194027 0.176269 0.141483 0.0892425 1.19844 -0.522728 
219 16.9377 29.7675 6.16627 0.0854709 -0.353383 0.090992 -0.542489 -1.12592 0.286366 
212 14.8199 28.5083 6.14926 -0.294095 0.0351848 0.100984 0.370635 -0.0865863 0.0452268 
223 15.5207 29.7336 6.17722 0.368922 -0.0283144 -0.115371 -1.17948 0.628001 0.546997 
224 17.6537 28.5415 6.16594 0.227163 0.55408 -0.0507493 0.618746 -0.47796 -0.476507 
217 12.6889 32.1314 6.16857 -0.0410442 -0.0104589 -0.176084 -0.611135 0.220148 0.109447 
374 9.14216 30.8366 6.11864 0.397749 0.109608 -0.0571278 -0.02488 0.824215 -0.030861 
221 11.2778 32.1001 6.14024 -0.0646966 -0.162045 0.00909179 0.927487 0.277031 1.03506 
327 10.5728 25.9769 6.12478 -0.524146 0.0943029 0.0758837 -0.457429 1.47261 -1.15933 
222 13.4006 30.9156 6.13885 -0.00524088 0.151511 0.204335 -1.40164 -1.25365 1.27571 
225 19.7959 27.3758 6.14315 -0.602373 -0.0201923 0.0300889 0.685988 1.58994 1.47615 
214 19.0654 26.162 6.14181 0.373558 -0.0826024 -0.073831 0.57735 0.709622 -0.345955 
366 17.6583 26.109 6.1092 -0.059735 0.362956 0.158862 0.356561 0.10997 -0.532073 
364 13.403 28.4795 6.14607 0.0554458 -0.369702 -0.026591 1.00838 -0.0296485 -0.700674 
213 16.9455 27.3202 6.15582 -0.248231 0.126574 -0.0699342 1.78331 0.750333 0.412086 
381 9.15787 33.2841 6.11649 -0.0431997 -0.231342 0.042943 -0.578186 1.07497 0.899045 
233 19.0662 31.0181 6.19122 0.144748 0.14184 -0.0134232 -0.144543 -0.089771 -2.53534 
211 12.6896 29.696 6.14407 0.0170223 -0.195779 0.0097851 -1.17628 0.12047 -0.523409 
346 12.6926 27.2464 6.13042 0.22517 0.0132255 -0.0938618 0.142016 -0.906499 -1.09809 
347 14.8094 26.0648 6.11594 0.353998 -0.0355599 -0.00442601 0.544728 -0.614298 0.75244 
339 8.43515 27.1613 6.15868 0.0994384 -0.567273 0.000282162 -0.907229 0.263537 -0.86947 
365 15.5291 27.2946 6.15488 -0.0150807 -0.47246 -0.139018 2.20605 0.317019 0.4118 
220 19.0735 28.5881 6.16066 -0.27547 -0.327413 0.0621961 -0.00950707 -0.297396 0.735312 
238 19.7835 29.8015 6.20088 0.0761239 0.321271 -0.126321 -1.61167 -1.57476 -1.96517 
230 12.679 34.5824 6.16079 0.0150403 -0.0773349 -0.0709906 -0.461292 0.511327 -0.977153 
259 4.90868 40.6052 6.09765 0 0 0 0 0 0 
273 4.90868 43.0652 6.09765 0 0 0 0 0 0 
377 4.90868 35.6852 6.09765 0 0 0 0 0 0 
382 4.90868 38.1452 6.09765 0 0 0 0 0 0 
234 11.267 34.5532 6.14416 -0.0967029 -0.128458 -0.077692 2.05293 -1.0393 0.256195 
261 10.5678 40.6742 6.04115 -0.261079 0.0981605 0.192326 0.701558 -1.76268 -1.02493 
250 13.3861 35.8084 6.14068 -0.338707 -0.0271023 -0.0722996 -2.37016 -0.562539 -1.6612 
245 12.6788 37.0314 6.09686 0.0829571 -0.0143747 0.106227 -0.652667 -0.171135 0.713702 
277 9.14772 40.6617 6.0652 0.151625 -0.493584 0.0107071 -2.35135 1.06646 0.489505 
266 11.2726 39.45 6.0542 -0.099075 0.0386982 -0.0666068 0.850326 -0.660038 0.520201 
387 7.02233 39.4116 6.07359 0.287018 -0.559917 -0.00827078 0.432832 -1.08955 0.537938 
251 15.5204 34.613 6.16381 -0.470379 0.143938 -0.0149382 0.441791 2.62453 1.08316 
246 14.7894 35.8273 6.14092 0.980831 0.11945 0.0795371 -0.454111 -0.611178 1.47455 
247 16.9297 34.6376 6.1752 0.270916 -0.0764367 -0.0940784 -2.95845 -0.868134 -0.199835 
782 10.5616 43.1231 6.10776 0.0207171 0.185667 -0.0440821 -0.159228 -0.979618 -0.124508 
799 9.14462 43.1088 6.10774 0.183651 -0.230167 -0.0233449 -0.741931 0.711339 -0.272341 
269 17.6428 35.8582 6.15193 -0.0538065 0.115696 -0.0928833 -0.831448 -0.441678 -1.1258 