ITEM: TIMESTEP
4500
ITEM: NUMBER OF ATOMS
4798
ITEM: BOX BOUNDS ff ff ff
-10.3577 110.358
-10.0998 131.9
-100.402 112.598
ITEM: ATOMS id x y z fx fy fz vx vy vz 
72 -0.062301 2.4752 6.09765 0 0 0 0 0 0 
110 4.19854 7.39519 6.09765 0 0 0 0 0 0 
109 2.77826 7.39519 6.09765 0 0 0 0 0 0 
93 4.19854 4.9352 6.09765 0 0 0 0 0 0 
92 2.77826 4.9352 6.09765 0 0 0 0 0 0 
91 2.06812 6.16519 6.09765 0 0 0 0 0 0 
87 0.647839 6.16519 6.09765 0 0 0 0 0 0 
86 -0.062301 7.39519 6.09765 0 0 0 0 0 0 
81 4.19854 2.4752 6.09765 0 0 0 0 0 0 
80 2.77826 2.4752 6.09765 0 0 0 0 0 0 
79 2.06812 3.7052 6.09765 0 0 0 0 0 0 
78 0.647839 3.7052 6.09765 0 0 0 0 0 0 
77 -0.062301 4.9352 6.09765 0 0 0 0 0 0 
76 4.19854 0.015197 6.09765 0 0 0 0 0 0 
75 2.77826 0.015197 6.09765 0 0 0 0 0 0 
74 2.06812 1.2452 6.09765 0 0 0 0 0 0 
73 0.647839 1.2452 6.09765 0 0 0 0 0 0 
6 -0.062301 12.3152 6.09765 0 0 0 0 0 0 
131 4.19854 12.3152 6.09765 0 0 0 0 0 0 
130 2.77826 12.3152 6.09765 0 0 0 0 0 0 
124 4.19854 9.85519 6.09765 0 0 0 0 0 0 
123 2.77826 9.85519 6.09765 0 0 0 0 0 0 
122 2.06812 11.0852 6.09765 0 0 0 0 0 0 
117 0.647839 11.0852 6.09765 0 0 0 0 0 0 
108 2.06812 8.62519 6.09765 0 0 0 0 0 0 
100 0.647839 8.62519 6.09765 0 0 0 0 0 0 
99 -0.062301 9.85519 6.09765 0 0 0 0 0 0 
34 4.19854 14.7752 6.09765 0 0 0 0 0 0 
33 2.77826 14.7752 6.09765 0 0 0 0 0 0 
32 2.06812 16.0052 6.09765 0 0 0 0 0 0 
31 0.647839 16.0052 6.09765 0 0 0 0 0 0 
19 2.06812 13.5452 6.09765 0 0 0 0 0 0 
18 0.647839 13.5452 6.09765 0 0 0 0 0 0 
17 -0.062301 14.7752 6.09765 0 0 0 0 0 0 
300 4.19854 24.6152 6.09765 0 0 0 0 0 0 
299 2.77826 24.6152 6.09765 0 0 0 0 0 0 
204 4.19854 22.1552 6.09765 0 0 0 0 0 0 
203 2.77826 22.1552 6.09765 0 0 0 0 0 0 
202 2.06812 23.3852 6.09765 0 0 0 0 0 0 
191 0.647839 23.3852 6.09765 0 0 0 0 0 0 
190 -0.062301 24.6152 6.09765 0 0 0 0 0 0 
71 2.06812 20.9252 6.09765 0 0 0 0 0 0 
70 0.647839 20.9252 6.09765 0 0 0 0 0 0 
69 -0.062301 22.1552 6.09765 0 0 0 0 0 0 
63 4.19854 19.6952 6.09765 0 0 0 0 0 0 
62 2.77826 19.6952 6.09765 0 0 0 0 0 0 
49 4.19854 17.2352 6.09765 0 0 0 0 0 0 
48 2.77826 17.2352 6.09765 0 0 0 0 0 0 
47 2.06812 18.4652 6.09765 0 0 0 0 0 0 
46 0.647839 18.4652 6.09765 0 0 0 0 0 0 
45 -0.062301 19.6952 6.09765 0 0 0 0 0 0 
30 -0.062301 17.2352 6.09765 0 0 0 0 0 0 
355 4.19854 31.9952 6.09765 0 0 0 0 0 0 
354 2.77826 31.9952 6.09765 0 0 0 0 0 0 
353 2.06812 33.2252 6.09765 0 0 0 0 0 0 
344 0.647839 33.2252 6.09765 0 0 0 0 0 0 
335 4.19854 29.5352 6.09765 0 0 0 0 0 0 
334 2.77826 29.5352 6.09765 0 0 0 0 0 0 
333 2.06812 30.7652 6.09765 0 0 0 0 0 0 
326 0.647839 30.7652 6.09765 0 0 0 0 0 0 
325 -0.062301 31.9952 6.09765 0 0 0 0 0 0 
315 4.19854 27.0752 6.09765 0 0 0 0 0 0 
314 2.77826 27.0752 6.09765 0 0 0 0 0 0 
313 2.06812 28.3052 6.09765 0 0 0 0 0 0 
308 0.647839 28.3052 6.09765 0 0 0 0 0 0 
307 -0.062301 29.5352 6.09765 0 0 0 0 0 0 
298 2.06812 25.8452 6.09765 0 0 0 0 0 0 
297 0.647839 25.8452 6.09765 0 0 0 0 0 0 
296 -0.062301 27.0752 6.09765 0 0 0 0 0 0 
215 -0.062301 36.9152 6.09765 0 0 0 0 0 0 
376 4.19854 36.9152 6.09765 0 0 0 0 0 0 
375 2.77826 36.9152 6.09765 0 0 0 0 0 0 
369 4.19854 34.4552 6.09765 0 0 0 0 0 0 
368 2.77826 34.4552 6.09765 0 0 0 0 0 0 
367 2.06812 35.6852 6.09765 0 0 0 0 0 0 
362 0.647839 35.6852 6.09765 0 0 0 0 0 0 
343 -0.062301 34.4552 6.09765 0 0 0 0 0 0 
258 4.19854 41.8352 6.09765 0 0 0 0 0 0 
257 2.77826 41.8352 6.09765 0 0 0 0 0 0 
256 2.06812 43.0652 6.09765 0 0 0 0 0 0 
255 0.647839 43.0652 6.09765 0 0 0 0 0 0 
243 4.19854 39.3752 6.09765 0 0 0 0 0 0 
242 2.77826 39.3752 6.09765 0 0 0 0 0 0 
241 2.06812 40.6052 6.09765 0 0 0 0 0 0 
240 0.647839 40.6052 6.09765 0 0 0 0 0 0 
239 -0.062301 41.8352 6.09765 0 0 0 0 0 0 
228 2.06812 38.1452 6.09765 0 0 0 0 0 0 
227 0.647839 38.1452 6.09765 0 0 0 0 0 0 
226 -0.062301 39.3752 6.09765 0 0 0 0 0 0 
254 -0.062301 44.2952 6.09765 0 0 0 0 0 0 
905 4.19854 51.6752 6.09765 0 0 0 0 0 0 
904 2.77826 51.6752 6.09765 0 0 0 0 0 0 
890 4.19854 49.2152 6.09765 0 0 0 0 0 0 
889 2.77826 49.2152 6.09765 0 0 0 0 0 0 
888 2.06812 50.4452 6.09765 0 0 0 0 0 0 
887 0.647839 50.4452 6.09765 0 0 0 0 0 0 
886 -0.062301 51.6752 6.09765 0 0 0 0 0 0 
794 4.19854 46.7552 6.09765 0 0 0 0 0 0 
793 2.77826 46.7552 6.09765 0 0 0 0 0 0 
792 2.06812 47.9852 6.09765 0 0 0 0 0 0 
781 0.647839 47.9852 6.09765 0 0 0 0 0 0 
780 -0.062301 49.2152 6.09765 0 0 0 0 0 0 
280 2.06812 45.5252 6.09765 0 0 0 0 0 0 
279 0.647839 45.5252 6.09765 0 0 0 0 0 0 
278 -0.062301 46.7552 6.09765 0 0 0 0 0 0 
272 4.19854 44.2952 6.09765 0 0 0 0 0 0 
271 2.77826 44.2952 6.09765 0 0 0 0 0 0 
959 4.19854 59.0552 6.09765 0 0 0 0 0 0 
958 2.77826 59.0552 6.09765 0 0 0 0 0 0 
957 2.06812 60.2852 6.09765 0 0 0 0 0 0 
952 0.647839 60.2852 6.09765 0 0 0 0 0 0 
945 4.19854 56.5952 6.09765 0 0 0 0 0 0 
944 2.77826 56.5952 6.09765 0 0 0 0 0 0 
943 2.06812 57.8252 6.09765 0 0 0 0 0 0 
934 0.647839 57.8252 6.09765 0 0 0 0 0 0 
933 -0.062301 59.0552 6.09765 0 0 0 0 0 0 
925 4.19854 54.1352 6.09765 0 0 0 0 0 0 
924 2.77826 54.1352 6.09765 0 0 0 0 0 0 
923 2.06812 55.3652 6.09765 0 0 0 0 0 0 
916 0.647839 55.3652 6.09765 0 0 0 0 0 0 
915 -0.062301 56.5952 6.09765 0 0 0 0 0 0 
903 2.06812 52.9052 6.09765 0 0 0 0 0 0 
898 0.647839 52.9052 6.09765 0 0 0 0 0 0 
897 -0.062301 54.1352 6.09765 0 0 0 0 0 0 
805 -0.062301 61.5152 6.09765 0 0 0 0 0 0 
966 4.19854 61.5152 6.09765 0 0 0 0 0 0 
965 2.77826 61.5152 6.09765 0 0 0 0 0 0 
862 4.19854 68.8952 6.09765 0 0 0 0 0 0 
861 2.77826 68.8952 6.09765 0 0 0 0 0 0 
848 4.19854 66.4352 6.09765 0 0 0 0 0 0 
847 2.77826 66.4352 6.09765 0 0 0 0 0 0 
846 2.06812 67.6652 6.09765 0 0 0 0 0 0 
845 0.647839 67.6652 6.09765 0 0 0 0 0 0 
844 -0.062301 68.8952 6.09765 0 0 0 0 0 0 
833 4.19854 63.9752 6.09765 0 0 0 0 0 0 
832 2.77826 63.9752 6.09765 0 0 0 0 0 0 
831 2.06812 65.2052 6.09765 0 0 0 0 0 0 
830 0.647839 65.2052 6.09765 0 0 0 0 0 0 
829 -0.062301 66.4352 6.09765 0 0 0 0 0 0 
818 2.06812 62.7452 6.09765 0 0 0 0 0 0 
817 0.647839 62.7452 6.09765 0 0 0 0 0 0 
816 -0.062301 63.9752 6.09765 0 0 0 0 0 0 
1828 4.19854 76.2752 6.09765 0 0 0 0 0 0 
1827 2.77826 76.2752 6.09765 0 0 0 0 0 0 
1826 2.06812 77.5052 6.09765 0 0 0 0 0 0 
1821 0.647839 77.5052 6.09765 0 0 0 0 0 0 
1813 4.19854 73.8152 6.09765 0 0 0 0 0 0 
1812 2.77826 73.8152 6.09765 0 0 0 0 0 0 
1811 2.06812 75.0452 6.09765 0 0 0 0 0 0 
1810 0.647839 75.0452 6.09765 0 0 0 0 0 0 
1809 -0.062301 76.2752 6.09765 0 0 0 0 0 0 
1717 4.19854 71.3552 6.09765 0 0 0 0 0 0 
1716 2.77826 71.3552 6.09765 0 0 0 0 0 0 
1715 2.06812 72.5852 6.09765 0 0 0 0 0 0 
1704 0.647839 72.5852 6.09765 0 0 0 0 0 0 
1703 -0.062301 73.8152 6.09765 0 0 0 0 0 0 
870 2.06812 70.1252 6.09765 0 0 0 0 0 0 
869 0.647839 70.1252 6.09765 0 0 0 0 0 0 
868 -0.062301 71.3552 6.09765 0 0 0 0 0 0 
1728 -0.062301 86.1152 6.09765 0 0 0 0 0 0 
1889 4.19854 86.1152 6.09765 0 0 0 0 0 0 
1888 2.77826 86.1152 6.09765 0 0 0 0 0 0 
1882 4.19854 83.6552 6.09765 0 0 0 0 0 0 
1881 2.77826 83.6552 6.09765 0 0 0 0 0 0 
1880 2.06812 84.8852 6.09765 0 0 0 0 0 0 
1875 0.647839 84.8852 6.09765 0 0 0 0 0 0 
1868 4.19854 81.1952 6.09765 0 0 0 0 0 0 
1867 2.77826 81.1952 6.09765 0 0 0 0 0 0 
1866 2.06812 82.4252 6.09765 0 0 0 0 0 0 
1857 0.647839 82.4252 6.09765 0 0 0 0 0 0 
1856 -0.062301 83.6552 6.09765 0 0 0 0 0 0 
1848 4.19854 78.7352 6.09765 0 0 0 0 0 0 
1847 2.77826 78.7352 6.09765 0 0 0 0 0 0 
1846 2.06812 79.9652 6.09765 0 0 0 0 0 0 
1839 0.647839 79.9652 6.09765 0 0 0 0 0 0 
1838 -0.062301 81.1952 6.09765 0 0 0 0 0 0 
1820 -0.062301 78.7352 6.09765 0 0 0 0 0 0 
1741 2.06812 87.3452 6.09765 0 0 0 0 0 0 
1740 0.647839 87.3452 6.09765 0 0 0 0 0 0 
2677 4.19854 95.9552 6.09765 0 0 0 0 0 0 
2676 2.77826 95.9552 6.09765 0 0 0 0 0 0 
1793 2.06812 94.7252 6.09765 0 0 0 0 0 0 
1792 0.647839 94.7252 6.09765 0 0 0 0 0 0 
1791 -0.062301 95.9552 6.09765 0 0 0 0 0 0 
1785 4.19854 93.4952 6.09765 0 0 0 0 0 0 
1784 2.77826 93.4952 6.09765 0 0 0 0 0 0 
1771 4.19854 91.0352 6.09765 0 0 0 0 0 0 
1770 2.77826 91.0352 6.09765 0 0 0 0 0 0 
1769 2.06812 92.2652 6.09765 0 0 0 0 0 0 
1768 0.647839 92.2652 6.09765 0 0 0 0 0 0 
1767 -0.062301 93.4952 6.09765 0 0 0 0 0 0 
1756 4.19854 88.5752 6.09765 0 0 0 0 0 0 
1755 2.77826 88.5752 6.09765 0 0 0 0 0 0 
1754 2.06812 89.8052 6.09765 0 0 0 0 0 0 
1753 0.647839 89.8052 6.09765 0 0 0 0 0 0 
1752 -0.062301 91.0352 6.09765 0 0 0 0 0 0 
1739 -0.062301 88.5752 6.09765 0 0 0 0 0 0 
2663 -0.062301 98.4152 6.09765 0 0 0 0 0 0 
2808 4.19854 103.335 6.09765 0 0 0 0 0 0 
2807 2.77826 103.335 6.09765 0 0 0 0 0 0 
2806 2.06812 104.565 6.09765 0 0 0 0 0 0 
2799 0.647839 104.565 6.09765 0 0 0 0 0 0 
2788 4.19854 100.875 6.09765 0 0 0 0 0 0 
2787 2.77826 100.875 6.09765 0 0 0 0 0 0 
2786 2.06812 102.105 6.09765 0 0 0 0 0 0 
2781 0.647839 102.105 6.09765 0 0 0 0 0 0 
2780 -0.062301 103.335 6.09765 0 0 0 0 0 0 
2773 4.19854 98.4152 6.09765 0 0 0 0 0 0 
2772 2.77826 98.4152 6.09765 0 0 0 0 0 0 
2771 2.06812 99.6452 6.09765 0 0 0 0 0 0 
2770 0.647839 99.6452 6.09765 0 0 0 0 0 0 
2769 -0.062301 100.875 6.09765 0 0 0 0 0 0 
2675 2.06812 97.1852 6.09765 0 0 0 0 0 0 
2664 0.647839 97.1852 6.09765 0 0 0 0 0 0 
2849 4.19854 110.715 6.09765 0 0 0 0 0 0 
2848 2.77826 110.715 6.09765 0 0 0 0 0 0 
2842 4.19854 108.255 6.09765 0 0 0 0 0 0 
2841 2.77826 108.255 6.09765 0 0 0 0 0 0 
2840 2.06812 109.485 6.09765 0 0 0 0 0 0 
2835 0.647839 109.485 6.09765 0 0 0 0 0 0 
2828 4.19854 105.795 6.09765 0 0 0 0 0 0 
2827 2.77826 105.795 6.09765 0 0 0 0 0 0 
2826 2.06812 107.025 6.09765 0 0 0 0 0 0 
2817 0.647839 107.025 6.09765 0 0 0 0 0 0 
2816 -0.062301 108.255 6.09765 0 0 0 0 0 0 
2798 -0.062301 105.795 6.09765 0 0 0 0 0 0 
2716 4.19854 113.175 6.09765 0 0 0 0 0 0 
2715 2.77826 113.175 6.09765 0 0 0 0 0 0 
2701 2.06812 111.945 6.09765 0 0 0 0 0 0 
2700 0.647839 111.945 6.09765 0 0 0 0 0 0 
2699 -0.062301 113.175 6.09765 0 0 0 0 0 0 
2688 -0.062301 110.715 6.09765 0 0 0 0 0 0 
2712 -0.062301 115.635 6.09765 0 0 0 0 0 0 
3636 4.19854 120.555 6.09765 0 0 0 0 0 0 
3635 2.77826 120.555 6.09765 0 0 0 0 0 0 
3634 2.06812 121.785 6.09765 0 0 0 0 0 0 
3623 0.647839 121.785 6.09765 0 0 0 0 0 0 
2753 2.06812 119.325 6.09765 0 0 0 0 0 0 
2752 0.647839 119.325 6.09765 0 0 0 0 0 0 
2751 -0.062301 120.555 6.09765 0 0 0 0 0 0 
2745 4.19854 118.095 6.09765 0 0 0 0 0 0 
2744 2.77826 118.095 6.09765 0 0 0 0 0 0 
2731 4.19854 115.635 6.09765 0 0 0 0 0 0 
2730 2.77826 115.635 6.09765 0 0 0 0 0 0 
2729 2.06812 116.865 6.09765 0 0 0 0 0 0 
2728 0.647839 116.865 6.09765 0 0 0 0 0 0 
2727 -0.062301 118.095 6.09765 0 0 0 0 0 0 
2714 2.06812 114.405 6.09765 0 0 0 0 0 0 
2713 0.647839 114.405 6.09765 0 0 0 0 0 0 
95 6.33834 3.80604 6.07264 -0.0802272 0.107187 -0.00642253 1.07659 0.923293 0.221597 
90 11.5165 0.452467 6.06855 0.562188 0.153467 -0.00525496 -0.53603 -1.00754 0.3241 
96 7.07836 2.6084 6.0698 0.0446131 0.185837 0.0400992 -0.36269 0.71951 0.552687 
104 17.1889 0.72282 6.00646 0.106256 0.122757 0.0473719 -3.29898 -0.413369 -0.0858361 
85 8.56309 0.345583 6.24458 -0.409248 -0.189772 -0.00814691 -0.265499 0.272189 -1.66595 
83 6.33377 1.37474 6.09403 0.631073 -0.594092 -0.00972412 1.51088 1.21295 0.819861 
112 6.33074 6.25474 6.08298 -0.0186922 -0.32784 -0.0802504 -0.907197 -0.000537437 -0.877162 
84 7.19018 0.236873 6.08206 0.184221 0.107504 0.0217297 0.545266 0.823303 0.769271 
88 10.715 1.60946 6.12256 -0.526386 0.0917284 0.00577576 0.295144 -2.05309 -0.464032 
98 9.30588 1.53558 6.13036 0.415898 -0.118751 0.131235 -1.76658 -1.08515 -2.12333 
127 7.04606 7.49091 6.07342 0.295902 0.220933 0.0943174 1.71168 1.12415 -1.76955 
128 8.47235 7.58063 6.08604 -0.397339 -0.502587 0.0076335 -0.452642 0.111294 1.36407 
97 8.5282 2.71308 6.09569 -0.220063 0.168647 -0.0337491 0.300241 0.373268 -0.493151 
113 7.06042 5.04102 6.06 0.109778 0.316161 0.15523 2.0688 0.292002 -0.210451 
94 4.90868 3.7052 6.09765 0 0 0 0 0 0 
111 4.90868 6.16519 6.09765 0 0 0 0 0 0 
82 4.90868 1.2452 6.09765 0 0 0 0 0 0 
4 17.1372 3.10477 6.21899 -0.064378 -0.550082 -0.0702309 0.632198 0.674866 -0.767573 
5 19.2912 1.93973 6.39551 -0.256701 -0.0367374 -0.0653435 1.06071 -0.703435 -0.193119 
89 12.8872 0.551223 6.2057 -0.0194965 0.00235743 -0.0683602 -1.96544 -0.672644 1.0336 
118 11.3681 5.2569 6.07086 -0.0349102 0.154859 0.148606 0.103302 -1.13093 -0.863997 
119 13.5469 4.15801 6.12674 -0.421687 0.155276 0.117799 -0.90314 0.742777 -0.715523 
28 17.7749 6.73655 6.12418 -0.225146 -0.0875342 0.115317 -0.394829 0.0805437 -0.69634 
106 13.6252 1.753 6.13657 -0.41913 -0.355143 0.138179 -1.42008 0.628118 -0.448561 
102 12.85 2.9309 6.13225 0.024693 0.101709 -0.0217244 -1.40701 -0.207604 -1.14551 
120 15.7043 3.04602 6.21383 0.507764 -0.327246 -0.0287661 0.943176 1.38245 0.950613 
115 9.23862 3.94258 6.09125 -0.458638 0.233285 -0.0190443 -0.79272 0.192547 -0.845587 
9 14.9091 6.6366 6.16038 0.36383 0.130488 -0.117317 -1.5769 -1.05099 0.368542 
10 17.0764 5.51493 6.14934 0.072387 -0.366763 0.0773702 -0.712125 0.492873 -1.57462 
24 19.1824 6.76649 6.17866 0.196016 -0.00786593 -0.11726 -0.13078 1.92556 0.151998 
129 9.20231 6.37026 6.0985 0.119995 0.251004 -0.0259316 -0.0795656 0.932285 0.949337 
101 10.6557 4.02722 6.09576 0.509244 0.181841 0.0022485 0.137743 -0.850322 0.544576 
1 10.6261 6.45692 6.09337 -0.097565 -0.133273 -0.134636 0.333214 0.598812 -1.28232 
13 13.4926 6.57439 6.12359 0.0786536 -0.127635 -0.00111941 -1.01936 0.305502 -1.16387 
2 12.7893 5.34667 6.09934 0.0575751 -0.140932 0.0351693 0.879901 -1.1346 -1.5185 
11 19.2416 4.36073 6.20302 -0.2463 -0.507547 0.128069 2.05252 -0.945009 -0.64635 
105 11.4219 2.84208 6.12736 -0.231043 0.106416 -0.0929338 -0.219726 1.05265 -2.19576 
14 15.66 5.44449 6.17632 -0.165361 0.227129 -0.0498156 -1.17196 2.3622 0.133355 
15 17.8315 4.31957 6.18279 -0.331341 0.597465 0.0394825 -1.32461 -0.638806 -0.768381 
3 14.9554 4.22543 6.19722 0.169764 0.231374 -0.13258 -0.00192892 -0.0370519 -0.489773 
114 8.48493 5.1393 6.09642 0.169458 -0.161092 -0.0952384 0.109222 1.40181 -0.35147 
107 15.8295 0.665253 6.18763 -0.102059 -0.0682076 -0.0506806 0.0913608 0.547037 -0.123009 
103 15.0138 1.81264 6.15709 0.213476 0.0104351 0.116196 2.16178 -0.688476 1.94537 
121 17.9118 1.91181 6.23295 -0.585167 -0.0289169 -0.161838 -0.919431 -0.889509 -2.54691 
192 10.5691 18.6338 6.10632 0.220444 0.157194 0.00829086 0.301856 -0.265439 -0.404985 
20 10.5991 11.3286 6.09066 -0.524755 -0.40687 0.0176972 -1.23173 0.260276 0.48726 
302 16.9404 20.0407 6.12223 0.346678 0.0483286 0.0290017 0.393304 -0.528252 -1.67667 
209 9.16165 18.5833 6.10523 -0.291366 0.222473 -0.135447 3.0004 -1.33822 1.02492 
68 9.15302 16.1432 6.11038 -0.0765733 -0.098056 -0.0885401 0.516537 -1.49548 0.334724 
281 10.5718 21.0854 6.11541 -0.154323 -0.124958 0.0217335 0.946271 0.315913 -1.3729 
144 9.1651 13.7061 6.1075 -0.140594 -0.571153 0.00258172 -0.096079 0.529186 -1.12058 
328 12.6894 24.8075 6.11009 0.105112 -0.407203 0.0522092 -0.555543 -1.55729 0.407614 
206 6.31723 20.9724 6.07619 0.0822774 0.156212 0.0395623 0.755742 0.191729 1.12383 
134 7.04061 9.93576 6.10201 0.0575992 0.0887679 -0.118769 0.361604 -1.24205 1.27751 
133 6.32741 11.1507 6.10067 -0.213434 0.12071 0.00861719 0.360144 -1.18669 1.12784 
322 19.0608 21.3096 6.1367 0.457376 -0.255189 -0.105792 -0.762675 -1.88869 0.799366 
309 10.5501 23.5282 6.12471 0.778875 0.0336437 0.0116403 -1.07738 0.783645 -1.01768 
319 8.4306 24.7018 6.11847 0.406243 -0.0329944 -0.104769 0.863007 -0.0283246 1.13142 
293 7.02453 22.2035 6.08811 0.00332574 0.502312 -0.0209066 0.072063 0.0410372 -0.434745 
67 8.4437 17.3594 6.07618 -0.0570785 0.0151835 0.0753341 -0.713088 -1.3659 -0.63019 
193 12.6927 17.4777 6.12317 0.0177841 0.166258 0.0593209 -0.276532 -0.938637 -1.00875 
197 11.2784 17.4179 6.11813 0.119052 0.0617969 0.0580175 -0.585483 -0.223909 -0.474599 
305 17.6705 18.8358 6.13329 -0.308827 0.00739194 -0.000781256 0.64965 0.0274674 -0.620801 
66 7.02978 17.3101 6.05478 -0.0574787 -0.457015 0.018698 0.544652 -0.455476 1.31592 
208 8.45343 19.8056 6.08692 -0.53191 -0.0694809 -0.0291884 -0.371081 0.117685 -0.0985907 
361 19.7907 24.9575 6.14316 -0.0523736 -0.513981 -0.0477161 -0.387995 0.298461 -0.262678 
7 10.6025 8.88642 6.07077 -0.0319572 0.230453 0.0381267 -1.53283 0.436943 0.251284 
320 9.14652 23.485 6.13233 -0.42559 0.0593979 -0.0775453 -0.138758 -2.47744 0.297793 
318 7.02376 24.6614 6.09121 -0.0503574 0.173599 0.0805397 -0.528017 -0.0907249 0.00773919 
8 12.7559 7.76961 6.10502 -0.264171 -0.0586323 0.069852 -0.3995 1.50026 1.50024 
12 11.3381 7.68895 6.07927 0.0247676 -0.206285 0.0966571 -0.114479 -0.480131 0.18815 
342 19.7764 22.5254 6.12182 0.236995 0.134702 0.0109213 -0.456018 1.01391 -1.13493 
294 8.43881 22.2568 6.10092 -0.0160148 -0.207822 0.0749407 0.348689 -0.0877531 -3.02321 
65 6.31287 18.5222 6.06294 0.473059 0.179032 0.0157935 0.229439 -0.239511 -0.451173 
207 7.02681 19.7584 6.06524 0.426134 -0.318638 0.056236 -0.231632 -1.42403 -0.930567 
135 8.45484 10.0132 6.08604 0.258785 0.124206 0.0444523 0.264454 1.02746 2.75553 
136 9.18302 8.80816 6.07923 0.217026 0.0445041 0.0233346 -0.284182 -0.367159 -1.76366 
25 11.3188 10.116 6.09415 -0.178095 0.266838 -0.0624563 0.117505 1.5147 0.0730884 
295 9.15764 21.0415 6.09968 -0.0755562 -0.0991431 0.0396307 2.15585 -0.28539 0.497125 
126 6.32202 8.70536 6.08425 0.113666 -0.319363 0.0388847 0.101161 -1.43778 1.98028 
51 6.31732 16.0672 6.04969 0.14977 -0.0377508 0.148689 0.926605 0.406152 -0.418861 
137 4.90868 13.5452 6.09765 0 0 0 0 0 0 
132 4.90868 11.0852 6.09765 0 0 0 0 0 0 
125 4.90868 8.62519 6.09765 0 0 0 0 0 0 
50 4.90868 16.0052 6.09765 0 0 0 0 0 0 
198 13.414 16.2696 6.14441 0.164006 0.15521 -0.112803 -0.234143 -0.430762 1.79836 
341 19.0634 23.7394 6.13433 0.216486 0.00377885 -0.0511103 -0.675435 0.159703 -0.437234 
60 17.7143 11.57 6.19379 -0.142324 -0.52365 -0.0798018 1.28022 0.588669 -0.553052 
59 15.57 12.7094 6.17282 -0.311395 -0.180006 -0.00311229 1.42851 0.822888 1.59041 
324 19.7918 20.1001 6.12494 -0.442081 -0.0151444 -0.0379094 0.180334 -0.0231131 -0.556391 
58 13.4163 13.8466 6.14587 0.466844 -0.226409 -0.106893 -0.974663 0.934286 -0.240978 
56 19.1235 11.6093 6.19161 0.157314 -0.0108626 -0.0943089 -0.536471 -1.23024 1.45989 
138 6.31621 13.6029 6.10151 0.442249 0.136202 -0.129224 0.458669 1.51224 1.04514 
194 14.8309 16.3294 6.13406 -0.182132 -0.00330708 -0.0646645 0.587768 -0.482497 1.30974 
53 12.6962 15.0492 6.13045 0.176731 0.0897705 0.039812 1.79492 -1.15794 -1.36832 
195 16.9634 15.1876 6.13667 0.268302 0.0705898 0.0560094 0.758115 1.45472 -0.370595 
43 17.7478 9.14433 6.13478 -0.339145 0.0792692 0.0677114 -0.661855 0.905894 0.761296 
42 15.5945 10.2807 6.1609 -0.0485544 -0.081499 -0.0382192 -1.04227 0.889886 -0.579498 
196 19.1081 14.0244 6.14977 -0.0102037 0.436786 -0.0279409 -0.674756 -1.08042 1.18742 
39 19.1532 9.19116 6.16382 0.169198 -0.353655 -0.0497414 -0.849101 -0.398566 -0.199148 
285 19.0913 16.4547 6.10496 0.0577814 -0.218864 0.0278536 1.34114 -0.322753 -0.42194 
38 17.0147 10.3404 6.15923 -0.25969 0.199045 0.0431772 -0.704849 -0.633329 0.345374 
26 13.4586 8.99623 6.12539 0.0860476 0.0442851 -0.0496779 1.43814 0.542584 -0.358426 
22 14.8731 9.05508 6.13441 0.543667 0.31326 0.00430332 0.229196 0.456696 -1.18422 
303 19.0811 18.8756 6.13016 -0.044704 0.366275 -0.0867481 0.972542 -0.27202 -2.64728 
306 19.7989 17.6743 6.09209 0.362415 -0.178668 0.182614 0.639663 1.10639 -0.00924128 
23 17.0353 7.93277 6.1174 0.114912 -0.386133 0.0801568 -1.03183 -1.31483 -0.59566 
27 15.6244 7.86148 6.13187 -0.628919 -0.0395239 0.0387233 1.68578 1.8515 -1.43804 
289 17.6806 16.4124 6.13221 -0.206642 -0.29867 -0.0495795 0.740934 0.189804 -1.19282 
57 11.2898 14.9851 6.11913 -0.312119 0.00570249 0.0332583 -0.270873 -0.0450481 0.581423 
41 13.4421 11.4177 6.12542 0.338207 0.0698935 0.0852943 0.697456 -1.03793 0.404503 
205 4.90868 20.9252 6.09765 0 0 0 0 0 0 
291 4.90868 23.3852 6.09765 0 0 0 0 0 0 
199 15.5514 15.1236 6.12768 0.0287473 0.201828 0.0613957 -0.386206 0.524775 0.350426 
21 12.728 10.2009 6.10692 0.237666 -0.628297 0.0452968 0.39518 -0.818755 1.27927 
64 4.90868 18.4652 6.09765 0 0 0 0 0 0 
36 12.7139 12.6166 6.12432 0.0961247 0.268622 0.0182966 -1.29492 0.17917 -2.41426 
37 14.8647 11.4844 6.17042 -0.384057 -0.148836 -0.117517 1.27406 0.293778 1.59696 
54 14.8343 13.9066 6.15149 0.00207909 0.0176716 -0.0364834 -0.451298 0.847495 0.290071 
200 17.6946 13.9863 6.16202 -0.219212 -0.282888 0.0123961 -0.396878 1.24608 -0.109587 
55 16.9764 12.7599 6.18647 0.477788 0.530141 -0.062744 0.100938 -0.458024 -0.769527 
142 7.02368 14.8438 6.0782 0.299338 0.0949166 0.00330324 0.211631 0.136705 -1.39879 
311 11.2746 22.3143 6.14741 0.0882684 0.156924 -0.0979135 -0.367712 -1.5412 -0.778118 
143 8.44052 14.9151 6.1015 -0.0349404 -0.184423 -0.00789791 1.06975 -0.587234 0.577876 
40 11.3043 12.558 6.10097 -0.131786 -0.347768 0.0568849 0.627846 -1.38489 0.439729 
52 10.565 16.1887 6.12847 0.10883 0.352101 -0.100958 -0.451767 1.66389 0.742147 
140 8.45715 12.4585 6.11171 -0.0975724 0.251415 -0.126885 -0.578271 -0.535042 -0.348068 
286 11.2823 19.8669 6.11424 -0.151888 0.00398342 -0.0473652 1.17936 1.53503 -0.169781 
287 13.4022 18.7097 6.13521 0.300843 -0.365386 -0.105943 -1.36113 -0.110044 1.10074 
288 15.5448 17.551 6.11836 -0.0444712 -0.0299728 0.136943 0.749717 -1.51666 0.85161 
330 11.2767 24.7495 6.10856 -0.145061 0.157617 0.00619021 0.640953 -0.300645 0.582435 
139 7.03982 12.3893 6.0983 -0.0502629 -0.00964008 0.0236866 0.906176 0.49309 0.147778 
141 9.17776 11.2453 6.09197 0.0884609 0.205968 0.00228437 0.0142261 0.240804 -0.406508 
352 17.6532 23.6959 6.10646 -0.0799096 -0.242424 0.115517 -0.041748 1.92009 1.66074 
351 15.5244 24.8614 6.11021 0.17068 0.281591 0.206953 -1.63605 -1.94973 1.0087 
348 16.9439 24.9066 6.11968 -0.311546 0.142416 -0.00161711 0.444312 -0.384404 -0.501969 
332 15.5281 22.4226 6.15891 -0.160064 0.201019 -0.135181 1.34428 -1.51039 -1.43689 
331 13.4112 23.5888 6.14234 -0.586131 0.286613 -0.0954725 1.10061 0.650807 -0.517958 
329 14.8147 23.6407 6.15519 0.244968 -0.315058 -0.0793311 2.42453 -0.119898 -0.0249639 
323 17.6528 21.2671 6.11313 -0.113228 -0.370359 0.0475804 -0.463972 -0.709351 -0.849183 
35 10.5802 13.7583 6.10544 -0.0975851 0.275551 -0.00436732 0.166114 0.357631 -1.78183 
321 16.9353 22.4717 6.11655 0.189482 0.287831 0.0923109 0.987621 0.356532 -0.572052 
312 13.4049 21.1513 6.12409 0.0911958 -0.267052 0.0724373 -0.600439 0.400913 1.0971 
310 12.6929 22.3641 6.13531 -0.164066 0.18228 0.00471548 -0.601112 -1.15616 0.0483817 
283 14.8189 18.7505 6.13721 -0.0116807 0.713202 -0.100966 1.6573 0.191508 -0.151431 
284 16.9563 17.6169 6.14819 0.0592446 -0.191691 -0.174204 -0.859527 -0.0682829 -0.423533 
304 15.5305 19.9883 6.13079 -0.0521483 -0.567311 0.0481471 0.279452 0.168208 -0.728297 
282 12.6936 19.92 6.11462 -0.0260957 0.234501 0.0901724 1.03994 0.118374 1.54458 
301 14.8206 21.196 6.14642 -0.432326 0.241741 -0.0399777 -0.75191 1.00601 1.03765 
292 6.31485 23.4368 6.09633 0.278759 -0.646431 -0.0337777 0.732898 0.491836 1.51419 
389 9.15309 38.2012 6.08799 -0.356411 0.288608 -0.134028 1.47678 0.481375 -0.584478 
384 7.03375 36.9553 6.06208 0.15764 -0.26125 0.021643 -1.18658 0.108285 0.988159 
378 6.32928 35.719 6.09455 -0.194189 -0.0104996 -0.164465 0.279549 -1.17079 -0.982955 
274 6.31586 43.0852 6.11293 0.42689 0.00728257 -0.122955 0.29317 1.23923 -0.324324 
371 6.32421 33.2576 6.08123 -0.130986 0.0459986 0.00285633 0.267286 -0.400589 0.260958 
379 7.0328 34.4909 6.06949 0.0195156 -0.0282009 0.0253014 -0.639123 0.877799 1.51597 
225 19.7877 27.3955 6.14918 0.0828453 -0.214056 -0.0611987 1.22445 -0.293382 1.0604 
214 19.0868 26.1651 6.14615 -0.671481 0.471148 0.00694093 -0.677568 0.396967 -0.661965 
366 17.6642 26.1268 6.12723 0.0851545 0.101432 -0.047786 -0.123628 -0.648037 0.872582 
364 13.4049 28.4657 6.10016 -0.535455 0.265614 0.053983 0.68219 1.06752 0.550207 
213 16.9504 27.3452 6.10309 -0.267516 -0.580069 0.102087 -1.44063 0.206139 0.419089 
211 12.6919 29.6914 6.12893 -0.377181 -0.330984 -0.0876353 2.65309 -0.611119 -1.38477 
238 19.7899 29.8208 6.10225 -0.161366 0.00873492 0.00767289 0.477764 0.525742 0.145451 
275 7.02529 41.8604 6.10045 0.0273264 -0.0653463 -0.0397017 0.116916 -1.42694 -0.226868 
220 19.0759 28.6099 6.12359 -0.0639141 -0.633364 -0.0438715 2.62889 1.52762 -0.137743 
365 15.5318 27.3015 6.10257 0.0384595 -0.418697 0.0551203 -1.1697 -0.191482 0.0842147 
339 8.44253 27.1459 6.079 -0.0255875 0.122536 0.173142 0.781429 0.936991 1.05417 
347 14.8042 26.0774 6.12202 0.704829 0.0485818 -0.131854 0.0998827 -1.12017 0.1936 
346 12.6845 27.2422 6.07016 -0.0113559 0.324454 0.237966 -0.111274 0.201615 -0.444221 
350 13.3997 26.0339 6.10964 -0.241278 -0.255386 -0.120283 -2.08278 1.46157 -1.35581 
233 19.0684 31.0223 6.10571 0.174809 0.607646 -0.0259779 0.0285101 1.42726 1.1036 
877 13.388 43.1562 6.14394 0.126787 0.419429 0.0816171 -0.951071 -0.286885 0.503507 
381 9.14679 33.2882 6.09254 0.170481 0.0262467 -0.048826 -0.408098 1.1056 0.900151 
383 6.32185 38.1759 6.06371 0.135302 0.105973 0.1303 0.717134 -0.0678811 0.833947 
878 15.5121 41.9716 6.14584 0.196918 -0.581414 0.216476 0.243233 -0.91616 -1.90253 
874 16.9328 41.9839 6.18188 -0.224327 -0.28748 -0.208597 -0.708562 0.905388 -0.634762 
262 12.6802 39.4857 6.15428 0.00969189 0.0543058 0.0473832 -0.827558 -0.919887 -0.25386 
789 15.5135 39.5184 6.14387 0.0831135 -0.0379828 0.0156267 -0.266123 -0.393015 1.15913 
785 16.9247 39.5418 6.11465 0.056207 -0.237762 0.13245 0.815146 0.504226 -0.0157778 
385 8.45474 36.9728 6.05083 -0.275578 -0.198755 0.147937 -0.731775 1.36963 -0.0285319 
263 14.8028 38.2988 6.17307 -0.312738 -0.154378 -0.211576 1.80976 -0.250547 0.153763 
260 6.32205 40.6258 6.09904 0.0193175 0.261998 -0.00537211 0.827885 0.00377081 0.275645 
244 10.5568 38.2353 6.08093 0.575089 -0.173024 0.18936 0.271154 -0.760121 0.560701 
267 13.3848 38.2663 6.14402 0.430784 0.16715 0.109208 -0.756554 -1.43726 -0.886623 
380 8.45078 34.5153 6.06421 -0.291276 -0.00295942 0.052636 -1.29614 -1.19212 -1.2615 
265 19.0615 35.9006 6.10776 -0.13488 0.294329 -0.172108 0.914863 0.273965 0.995021 
264 16.9239 37.102 6.10859 -0.161181 -0.372284 0.0762861 -0.269177 -0.581676 -0.895597 
268 15.5061 37.0777 6.13792 0.151431 -0.334065 0.146983 0.688217 -0.0405743 -0.426073 
783 12.6797 41.9379 6.14203 0.326015 -0.399941 0.0780195 0.913429 -0.875261 -0.110617 
791 19.7663 37.1266 6.08447 0.21015 0.0218343 0.125119 -0.91765 1.14493 -0.237569 
786 19.0507 38.3448 6.08695 -0.00586064 0.0333715 0.145341 -0.522649 0.560744 1.44686 
880 19.7757 39.5677 6.11257 -0.749371 -0.277547 0.00405909 0.87049 -0.749674 1.83874 
896 19.7714 41.9956 6.15623 -0.200176 0.734485 -0.126437 -0.339853 0.204729 0.319081 
270 19.7814 34.691 6.10135 -0.262643 -0.111971 0.0496169 0.193379 -0.669416 0.410735 
784 14.8078 40.7335 6.16515 -0.198186 0.540243 -0.0509921 0.0921939 -1.71614 -0.955461 
879 17.6419 40.7564 6.13705 -0.041434 0.420997 0.0561232 2.12443 0.660053 -2.05736 
875 19.0567 40.7812 6.1412 -0.0195834 -0.146525 -0.0346631 1.02591 -1.32826 0.240491 
790 17.6282 38.3168 6.12613 0.597078 0.504906 -0.25082 -0.53201 0.704685 2.57018 
788 13.389 40.7118 6.17951 0.128606 0.116255 -0.195366 -0.0216536 -0.994424 -1.8021 
787 11.2753 41.9078 6.12293 -0.281108 0.315279 -0.109078 -1.73342 -0.393071 -1.94624 
269 17.6456 35.8885 6.09613 -0.098404 -0.119035 0.119571 -1.66498 -0.166517 0.837479 
370 4.90868 33.2252 6.09765 0 0 0 0 0 0 
317 6.31808 25.8845 6.09929 0.173207 0.0540314 -0.0496142 -0.450941 1.11517 0.358036 
356 4.90868 30.7652 6.09765 0 0 0 0 0 0 
336 4.90868 28.3052 6.09765 0 0 0 0 0 0 
316 4.90868 25.8452 6.09765 0 0 0 0 0 0 
337 6.32338 28.3418 6.10261 -0.0889769 -0.11416 0.0568491 0.984857 0.134338 -0.75878 
338 7.0281 27.1169 6.10219 -0.0644842 -0.111918 -0.0769756 -0.733374 -0.406866 0.0435215 
229 10.5732 35.7759 6.06856 0.0268023 0.0953516 0.0721915 0.863042 0.43736 -0.332486 
230 12.6793 34.5921 6.11883 0.11416 -0.514099 -0.00245857 -1.10347 -0.175325 -0.305071 
216 10.5613 33.3238 6.10993 -0.107342 -0.0509389 -0.0298007 -0.423451 0.693926 1.02903 
358 7.02794 29.5712 6.11094 0.0344349 0.191232 0.0107365 -1.88765 -1.26683 -0.319093 
373 8.44183 32.0557 6.09133 -0.230941 0.113652 -0.0234998 -0.589965 1.18884 0.238815 
357 6.31847 30.7966 6.10765 0.236176 -0.0098617 -0.0973024 -0.0653373 0.10208 -1.42748 
372 7.02057 32.0305 6.07979 0.465544 -0.111768 0.11113 -1.24983 -0.36499 0.35001 
248 19.0608 33.475 6.10201 0.241951 -0.264976 0.0917714 -0.0350944 -0.0129624 0.847735 
252 17.6501 33.4518 6.11498 -0.0561845 -0.369397 -0.133326 0.717478 0.741404 0.823558 
218 14.8147 30.9507 6.12353 -0.122841 0.157769 0.0267243 -0.464287 -1.34642 2.22949 
236 15.5291 32.1798 6.09828 -0.0909151 0.241189 0.0695624 -0.0361387 -0.411368 2.1219 
231 14.8115 33.4065 6.12263 -0.058329 -0.46402 -0.113636 -2.03773 -0.700133 -0.0980453 
253 19.774 32.2524 6.12086 -0.134406 0.026845 -0.067898 -0.566773 3.03635 0.0594475 
235 13.3931 33.3687 6.10532 0.162555 0.266466 0.0154069 0.141787 -0.921004 2.61128 
232 16.9475 32.2193 6.07726 -0.213224 -0.047227 0.160444 0.690845 -0.17771 -2.7811 
259 4.90868 40.6052 6.09765 0 0 0 0 0 0 
273 4.90868 43.0652 6.09765 0 0 0 0 0 0 
377 4.90868 35.6852 6.09765 0 0 0 0 0 0 
382 4.90868 38.1452 6.09765 0 0 0 0 0 0 
234 11.2696 34.5477 6.09423 0.101009 0.354733 0.0729456 0.752611 -1.64745 -0.0575696 
386 9.16276 35.743 6.07032 -0.347368 0.320307 -0.0835143 -0.0825701 0.100325 0.702656 
261 10.5707 40.6845 6.11346 -0.485402 -0.0744114 -0.00336606 -0.276037 0.99913 -0.040666 
250 13.3826 35.8131 6.15133 0.413595 0.313426 -0.0354963 -1.57427 1.38995 -1.38801 
249 11.2751 37.0141 6.09181 -0.21827 -0.172148 0.0148193 -1.47468 0.474329 -0.69522 
245 12.6878 37.0408 6.1352 -0.248808 -0.188414 -0.0225738 -0.281373 -2.30289 -0.00879817 
277 9.15092 40.6616 6.086 0.185787 -0.246557 0.0743003 0.308991 -0.73096 0.477597 
266 11.2686 39.4599 6.13306 -0.0533298 0.0095518 -0.102424 -0.325645 -0.559354 -0.50239 
387 7.03071 39.4081 6.0808 -0.120533 -0.306965 0.0519954 -1.09838 0.474216 1.32951 