ITEM: TIMESTEP
5300
ITEM: NUMBER OF ATOMS
4798
ITEM: BOX BOUNDS ff ff ff
-10.3577 110.358
-10.0998 131.9
-100.402 112.598
ITEM: ATOMS id x y z fx fy fz vx vy vz 
72 -0.062301 2.4752 6.09765 0 0 0 0 0 0 
110 4.19854 7.39519 6.09765 0 0 0 0 0 0 
109 2.77826 7.39519 6.09765 0 0 0 0 0 0 
93 4.19854 4.9352 6.09765 0 0 0 0 0 0 
92 2.77826 4.9352 6.09765 0 0 0 0 0 0 
91 2.06812 6.16519 6.09765 0 0 0 0 0 0 
87 0.647839 6.16519 6.09765 0 0 0 0 0 0 
86 -0.062301 7.39519 6.09765 0 0 0 0 0 0 
81 4.19854 2.4752 6.09765 0 0 0 0 0 0 
80 2.77826 2.4752 6.09765 0 0 0 0 0 0 
79 2.06812 3.7052 6.09765 0 0 0 0 0 0 
78 0.647839 3.7052 6.09765 0 0 0 0 0 0 
77 -0.062301 4.9352 6.09765 0 0 0 0 0 0 
76 4.19854 0.015197 6.09765 0 0 0 0 0 0 
75 2.77826 0.015197 6.09765 0 0 0 0 0 0 
74 2.06812 1.2452 6.09765 0 0 0 0 0 0 
73 0.647839 1.2452 6.09765 0 0 0 0 0 0 
6 -0.062301 12.3152 6.09765 0 0 0 0 0 0 
131 4.19854 12.3152 6.09765 0 0 0 0 0 0 
130 2.77826 12.3152 6.09765 0 0 0 0 0 0 
124 4.19854 9.85519 6.09765 0 0 0 0 0 0 
123 2.77826 9.85519 6.09765 0 0 0 0 0 0 
122 2.06812 11.0852 6.09765 0 0 0 0 0 0 
117 0.647839 11.0852 6.09765 0 0 0 0 0 0 
108 2.06812 8.62519 6.09765 0 0 0 0 0 0 
100 0.647839 8.62519 6.09765 0 0 0 0 0 0 
99 -0.062301 9.85519 6.09765 0 0 0 0 0 0 
34 4.19854 14.7752 6.09765 0 0 0 0 0 0 
33 2.77826 14.7752 6.09765 0 0 0 0 0 0 
32 2.06812 16.0052 6.09765 0 0 0 0 0 0 
31 0.647839 16.0052 6.09765 0 0 0 0 0 0 
19 2.06812 13.5452 6.09765 0 0 0 0 0 0 
18 0.647839 13.5452 6.09765 0 0 0 0 0 0 
17 -0.062301 14.7752 6.09765 0 0 0 0 0 0 
300 4.19854 24.6152 6.09765 0 0 0 0 0 0 
299 2.77826 24.6152 6.09765 0 0 0 0 0 0 
204 4.19854 22.1552 6.09765 0 0 0 0 0 0 
203 2.77826 22.1552 6.09765 0 0 0 0 0 0 
202 2.06812 23.3852 6.09765 0 0 0 0 0 0 
191 0.647839 23.3852 6.09765 0 0 0 0 0 0 
190 -0.062301 24.6152 6.09765 0 0 0 0 0 0 
71 2.06812 20.9252 6.09765 0 0 0 0 0 0 
70 0.647839 20.9252 6.09765 0 0 0 0 0 0 
69 -0.062301 22.1552 6.09765 0 0 0 0 0 0 
63 4.19854 19.6952 6.09765 0 0 0 0 0 0 
62 2.77826 19.6952 6.09765 0 0 0 0 0 0 
49 4.19854 17.2352 6.09765 0 0 0 0 0 0 
48 2.77826 17.2352 6.09765 0 0 0 0 0 0 
47 2.06812 18.4652 6.09765 0 0 0 0 0 0 
46 0.647839 18.4652 6.09765 0 0 0 0 0 0 
45 -0.062301 19.6952 6.09765 0 0 0 0 0 0 
30 -0.062301 17.2352 6.09765 0 0 0 0 0 0 
355 4.19854 31.9952 6.09765 0 0 0 0 0 0 
354 2.77826 31.9952 6.09765 0 0 0 0 0 0 
353 2.06812 33.2252 6.09765 0 0 0 0 0 0 
344 0.647839 33.2252 6.09765 0 0 0 0 0 0 
335 4.19854 29.5352 6.09765 0 0 0 0 0 0 
334 2.77826 29.5352 6.09765 0 0 0 0 0 0 
333 2.06812 30.7652 6.09765 0 0 0 0 0 0 
326 0.647839 30.7652 6.09765 0 0 0 0 0 0 
325 -0.062301 31.9952 6.09765 0 0 0 0 0 0 
315 4.19854 27.0752 6.09765 0 0 0 0 0 0 
314 2.77826 27.0752 6.09765 0 0 0 0 0 0 
313 2.06812 28.3052 6.09765 0 0 0 0 0 0 
308 0.647839 28.3052 6.09765 0 0 0 0 0 0 
307 -0.062301 29.5352 6.09765 0 0 0 0 0 0 
298 2.06812 25.8452 6.09765 0 0 0 0 0 0 
297 0.647839 25.8452 6.09765 0 0 0 0 0 0 
296 -0.062301 27.0752 6.09765 0 0 0 0 0 0 
215 -0.062301 36.9152 6.09765 0 0 0 0 0 0 
376 4.19854 36.9152 6.09765 0 0 0 0 0 0 
375 2.77826 36.9152 6.09765 0 0 0 0 0 0 
369 4.19854 34.4552 6.09765 0 0 0 0 0 0 
368 2.77826 34.4552 6.09765 0 0 0 0 0 0 
367 2.06812 35.6852 6.09765 0 0 0 0 0 0 
362 0.647839 35.6852 6.09765 0 0 0 0 0 0 
343 -0.062301 34.4552 6.09765 0 0 0 0 0 0 
258 4.19854 41.8352 6.09765 0 0 0 0 0 0 
257 2.77826 41.8352 6.09765 0 0 0 0 0 0 
256 2.06812 43.0652 6.09765 0 0 0 0 0 0 
255 0.647839 43.0652 6.09765 0 0 0 0 0 0 
243 4.19854 39.3752 6.09765 0 0 0 0 0 0 
242 2.77826 39.3752 6.09765 0 0 0 0 0 0 
241 2.06812 40.6052 6.09765 0 0 0 0 0 0 
240 0.647839 40.6052 6.09765 0 0 0 0 0 0 
239 -0.062301 41.8352 6.09765 0 0 0 0 0 0 
228 2.06812 38.1452 6.09765 0 0 0 0 0 0 
227 0.647839 38.1452 6.09765 0 0 0 0 0 0 
226 -0.062301 39.3752 6.09765 0 0 0 0 0 0 
254 -0.062301 44.2952 6.09765 0 0 0 0 0 0 
905 4.19854 51.6752 6.09765 0 0 0 0 0 0 
904 2.77826 51.6752 6.09765 0 0 0 0 0 0 
890 4.19854 49.2152 6.09765 0 0 0 0 0 0 
889 2.77826 49.2152 6.09765 0 0 0 0 0 0 
888 2.06812 50.4452 6.09765 0 0 0 0 0 0 
887 0.647839 50.4452 6.09765 0 0 0 0 0 0 
886 -0.062301 51.6752 6.09765 0 0 0 0 0 0 
794 4.19854 46.7552 6.09765 0 0 0 0 0 0 
793 2.77826 46.7552 6.09765 0 0 0 0 0 0 
792 2.06812 47.9852 6.09765 0 0 0 0 0 0 
781 0.647839 47.9852 6.09765 0 0 0 0 0 0 
780 -0.062301 49.2152 6.09765 0 0 0 0 0 0 
280 2.06812 45.5252 6.09765 0 0 0 0 0 0 
279 0.647839 45.5252 6.09765 0 0 0 0 0 0 
278 -0.062301 46.7552 6.09765 0 0 0 0 0 0 
272 4.19854 44.2952 6.09765 0 0 0 0 0 0 
271 2.77826 44.2952 6.09765 0 0 0 0 0 0 
959 4.19854 59.0552 6.09765 0 0 0 0 0 0 
958 2.77826 59.0552 6.09765 0 0 0 0 0 0 
957 2.06812 60.2852 6.09765 0 0 0 0 0 0 
952 0.647839 60.2852 6.09765 0 0 0 0 0 0 
945 4.19854 56.5952 6.09765 0 0 0 0 0 0 
944 2.77826 56.5952 6.09765 0 0 0 0 0 0 
943 2.06812 57.8252 6.09765 0 0 0 0 0 0 
934 0.647839 57.8252 6.09765 0 0 0 0 0 0 
933 -0.062301 59.0552 6.09765 0 0 0 0 0 0 
925 4.19854 54.1352 6.09765 0 0 0 0 0 0 
924 2.77826 54.1352 6.09765 0 0 0 0 0 0 
923 2.06812 55.3652 6.09765 0 0 0 0 0 0 
916 0.647839 55.3652 6.09765 0 0 0 0 0 0 
915 -0.062301 56.5952 6.09765 0 0 0 0 0 0 
903 2.06812 52.9052 6.09765 0 0 0 0 0 0 
898 0.647839 52.9052 6.09765 0 0 0 0 0 0 
897 -0.062301 54.1352 6.09765 0 0 0 0 0 0 
805 -0.062301 61.5152 6.09765 0 0 0 0 0 0 
966 4.19854 61.5152 6.09765 0 0 0 0 0 0 
965 2.77826 61.5152 6.09765 0 0 0 0 0 0 
862 4.19854 68.8952 6.09765 0 0 0 0 0 0 
861 2.77826 68.8952 6.09765 0 0 0 0 0 0 
848 4.19854 66.4352 6.09765 0 0 0 0 0 0 
847 2.77826 66.4352 6.09765 0 0 0 0 0 0 
846 2.06812 67.6652 6.09765 0 0 0 0 0 0 
845 0.647839 67.6652 6.09765 0 0 0 0 0 0 
844 -0.062301 68.8952 6.09765 0 0 0 0 0 0 
833 4.19854 63.9752 6.09765 0 0 0 0 0 0 
832 2.77826 63.9752 6.09765 0 0 0 0 0 0 
831 2.06812 65.2052 6.09765 0 0 0 0 0 0 
830 0.647839 65.2052 6.09765 0 0 0 0 0 0 
829 -0.062301 66.4352 6.09765 0 0 0 0 0 0 
818 2.06812 62.7452 6.09765 0 0 0 0 0 0 
817 0.647839 62.7452 6.09765 0 0 0 0 0 0 
816 -0.062301 63.9752 6.09765 0 0 0 0 0 0 
1828 4.19854 76.2752 6.09765 0 0 0 0 0 0 
1827 2.77826 76.2752 6.09765 0 0 0 0 0 0 
1826 2.06812 77.5052 6.09765 0 0 0 0 0 0 
1821 0.647839 77.5052 6.09765 0 0 0 0 0 0 
1813 4.19854 73.8152 6.09765 0 0 0 0 0 0 
1812 2.77826 73.8152 6.09765 0 0 0 0 0 0 
1811 2.06812 75.0452 6.09765 0 0 0 0 0 0 
1810 0.647839 75.0452 6.09765 0 0 0 0 0 0 
1809 -0.062301 76.2752 6.09765 0 0 0 0 0 0 
1717 4.19854 71.3552 6.09765 0 0 0 0 0 0 
1716 2.77826 71.3552 6.09765 0 0 0 0 0 0 
1715 2.06812 72.5852 6.09765 0 0 0 0 0 0 
1704 0.647839 72.5852 6.09765 0 0 0 0 0 0 
1703 -0.062301 73.8152 6.09765 0 0 0 0 0 0 
870 2.06812 70.1252 6.09765 0 0 0 0 0 0 
869 0.647839 70.1252 6.09765 0 0 0 0 0 0 
868 -0.062301 71.3552 6.09765 0 0 0 0 0 0 
1728 -0.062301 86.1152 6.09765 0 0 0 0 0 0 
1889 4.19854 86.1152 6.09765 0 0 0 0 0 0 
1888 2.77826 86.1152 6.09765 0 0 0 0 0 0 
1882 4.19854 83.6552 6.09765 0 0 0 0 0 0 
1881 2.77826 83.6552 6.09765 0 0 0 0 0 0 
1880 2.06812 84.8852 6.09765 0 0 0 0 0 0 
1875 0.647839 84.8852 6.09765 0 0 0 0 0 0 
1868 4.19854 81.1952 6.09765 0 0 0 0 0 0 
1867 2.77826 81.1952 6.09765 0 0 0 0 0 0 
1866 2.06812 82.4252 6.09765 0 0 0 0 0 0 
1857 0.647839 82.4252 6.09765 0 0 0 0 0 0 
1856 -0.062301 83.6552 6.09765 0 0 0 0 0 0 
1848 4.19854 78.7352 6.09765 0 0 0 0 0 0 
1847 2.77826 78.7352 6.09765 0 0 0 0 0 0 
1846 2.06812 79.9652 6.09765 0 0 0 0 0 0 
1839 0.647839 79.9652 6.09765 0 0 0 0 0 0 
1838 -0.062301 81.1952 6.09765 0 0 0 0 0 0 
1820 -0.062301 78.7352 6.09765 0 0 0 0 0 0 
1741 2.06812 87.3452 6.09765 0 0 0 0 0 0 
1740 0.647839 87.3452 6.09765 0 0 0 0 0 0 
2677 4.19854 95.9552 6.09765 0 0 0 0 0 0 
2676 2.77826 95.9552 6.09765 0 0 0 0 0 0 
1793 2.06812 94.7252 6.09765 0 0 0 0 0 0 
1792 0.647839 94.7252 6.09765 0 0 0 0 0 0 
1791 -0.062301 95.9552 6.09765 0 0 0 0 0 0 
1785 4.19854 93.4952 6.09765 0 0 0 0 0 0 
1784 2.77826 93.4952 6.09765 0 0 0 0 0 0 
1771 4.19854 91.0352 6.09765 0 0 0 0 0 0 
1770 2.77826 91.0352 6.09765 0 0 0 0 0 0 
1769 2.06812 92.2652 6.09765 0 0 0 0 0 0 
1768 0.647839 92.2652 6.09765 0 0 0 0 0 0 
1767 -0.062301 93.4952 6.09765 0 0 0 0 0 0 
1756 4.19854 88.5752 6.09765 0 0 0 0 0 0 
1755 2.77826 88.5752 6.09765 0 0 0 0 0 0 
1754 2.06812 89.8052 6.09765 0 0 0 0 0 0 
1753 0.647839 89.8052 6.09765 0 0 0 0 0 0 
1752 -0.062301 91.0352 6.09765 0 0 0 0 0 0 
1739 -0.062301 88.5752 6.09765 0 0 0 0 0 0 
2663 -0.062301 98.4152 6.09765 0 0 0 0 0 0 
2808 4.19854 103.335 6.09765 0 0 0 0 0 0 
2807 2.77826 103.335 6.09765 0 0 0 0 0 0 
2806 2.06812 104.565 6.09765 0 0 0 0 0 0 
2799 0.647839 104.565 6.09765 0 0 0 0 0 0 
2788 4.19854 100.875 6.09765 0 0 0 0 0 0 
2787 2.77826 100.875 6.09765 0 0 0 0 0 0 
2786 2.06812 102.105 6.09765 0 0 0 0 0 0 
2781 0.647839 102.105 6.09765 0 0 0 0 0 0 
2780 -0.062301 103.335 6.09765 0 0 0 0 0 0 
2773 4.19854 98.4152 6.09765 0 0 0 0 0 0 
2772 2.77826 98.4152 6.09765 0 0 0 0 0 0 
2771 2.06812 99.6452 6.09765 0 0 0 0 0 0 
2770 0.647839 99.6452 6.09765 0 0 0 0 0 0 
2769 -0.062301 100.875 6.09765 0 0 0 0 0 0 
2675 2.06812 97.1852 6.09765 0 0 0 0 0 0 
2664 0.647839 97.1852 6.09765 0 0 0 0 0 0 
2849 4.19854 110.715 6.09765 0 0 0 0 0 0 
2848 2.77826 110.715 6.09765 0 0 0 0 0 0 
2842 4.19854 108.255 6.09765 0 0 0 0 0 0 
2841 2.77826 108.255 6.09765 0 0 0 0 0 0 
2840 2.06812 109.485 6.09765 0 0 0 0 0 0 
2835 0.647839 109.485 6.09765 0 0 0 0 0 0 
2828 4.19854 105.795 6.09765 0 0 0 0 0 0 
2827 2.77826 105.795 6.09765 0 0 0 0 0 0 
2826 2.06812 107.025 6.09765 0 0 0 0 0 0 
2817 0.647839 107.025 6.09765 0 0 0 0 0 0 
2816 -0.062301 108.255 6.09765 0 0 0 0 0 0 
2798 -0.062301 105.795 6.09765 0 0 0 0 0 0 
2716 4.19854 113.175 6.09765 0 0 0 0 0 0 
2715 2.77826 113.175 6.09765 0 0 0 0 0 0 
2701 2.06812 111.945 6.09765 0 0 0 0 0 0 
2700 0.647839 111.945 6.09765 0 0 0 0 0 0 
2699 -0.062301 113.175 6.09765 0 0 0 0 0 0 
2688 -0.062301 110.715 6.09765 0 0 0 0 0 0 
2712 -0.062301 115.635 6.09765 0 0 0 0 0 0 
3636 4.19854 120.555 6.09765 0 0 0 0 0 0 
3635 2.77826 120.555 6.09765 0 0 0 0 0 0 
3634 2.06812 121.785 6.09765 0 0 0 0 0 0 
3623 0.647839 121.785 6.09765 0 0 0 0 0 0 
2753 2.06812 119.325 6.09765 0 0 0 0 0 0 
2752 0.647839 119.325 6.09765 0 0 0 0 0 0 
2751 -0.062301 120.555 6.09765 0 0 0 0 0 0 
2745 4.19854 118.095 6.09765 0 0 0 0 0 0 
2744 2.77826 118.095 6.09765 0 0 0 0 0 0 
2731 4.19854 115.635 6.09765 0 0 0 0 0 0 
2730 2.77826 115.635 6.09765 0 0 0 0 0 0 
2729 2.06812 116.865 6.09765 0 0 0 0 0 0 
2728 0.647839 116.865 6.09765 0 0 0 0 0 0 
2727 -0.062301 118.095 6.09765 0 0 0 0 0 0 
2714 2.06812 114.405 6.09765 0 0 0 0 0 0 
2713 0.647839 114.405 6.09765 0 0 0 0 0 0 
95 6.33932 3.79936 6.08959 -0.534675 0.389029 -0.133421 -0.2798 -0.969747 0.635193 
90 11.5297 0.467815 6.04304 -0.293413 0.527925 -0.0273297 -1.52508 -0.737934 -0.311413 
96 7.07262 2.60851 6.04315 0.233587 -0.359068 0.127841 -1.27758 0.101287 0.276388 
104 17.1388 0.753647 5.44254 -0.251334 -0.183138 0.00218549 0.261382 -0.967841 -0.587188 
113 7.0572 5.03551 6.06705 0.0431079 0.0547197 0.0942406 0.501435 -2.08098 -0.914457 
105 11.4115 2.86903 6.07622 -0.233123 -0.463205 -0.126672 0.170382 1.33949 1.15337 
112 6.33007 6.24108 6.06288 -0.15895 0.0475506 0.153102 -1.12462 -1.11182 -0.794182 
128 8.46072 7.57457 6.07886 0.396606 -0.0715214 0.0448516 0.929321 -0.16828 1.19115 
88 10.7029 1.62556 6.08594 0.383683 -0.0853365 -0.0252072 0.197415 -2.27569 -1.59536 
127 7.05247 7.4719 6.0903 -0.323473 0.437245 -0.0864396 0.701545 -0.462023 -0.170885 
118 11.3745 5.27277 6.0615 -0.476147 0.24406 -0.00389625 -1.85425 -0.396711 -1.04923 
115 9.23411 3.95902 6.05924 -0.494331 -0.068804 0.0712985 2.04868 -0.632897 -1.1853 
129 9.19351 6.37377 6.06301 0.503943 0.130521 0.0940059 0.314498 0.058654 -0.301999 
101 10.6562 4.05542 6.07563 0.0808148 -0.233437 -0.0944336 -0.0161906 -0.992667 1.761 
114 8.47456 5.14827 6.08365 0.487589 -0.343067 -0.148482 -0.014869 0.181799 -0.615321 
1 10.6239 6.46846 6.07611 -0.35702 -0.358661 -0.0440721 -0.105448 -0.0202016 -0.325399 
2 12.7884 5.35042 6.04452 0.370182 -0.18438 -0.0203628 -1.25697 -2.06768 0.398897 
4 17.1183 3.10318 5.84084 0.602343 -0.155634 -0.088397 -0.44446 0.1508 -1.31367 
5 19.259 1.95996 5.87618 0.410416 -0.0763694 0.0878073 0.485319 0.287178 -0.754715 
89 12.8956 0.56756 6.15054 0.202745 -0.0268534 0.0702721 0.114717 0.208479 1.16211 
121 17.8816 1.91398 5.71563 -0.317663 0.354147 0.0645983 0.00398627 1.35976 0.548461 
119 13.5456 4.15807 6.01811 -0.726743 0.274465 0.0524901 -1.44392 -2.44485 0.239787 
11 19.2243 4.37229 5.88202 -0.292359 -0.290602 -0.0366923 -0.814056 -0.304045 -0.694103 
14 15.6545 5.45092 5.99509 -0.323253 -0.499147 -0.0886369 0.465998 -0.650416 1.79348 
13 13.494 6.57597 6.06023 -0.451252 -0.517643 -0.0551293 -0.559653 -0.299551 -2.32983 
15 17.8088 4.32746 5.86239 0.281476 -0.287675 0.140855 -0.511222 1.48057 -2.30491 
3 14.9547 4.21931 5.97885 0.447982 0.355545 0.0702237 0.98903 1.10848 0.198497 
107 15.7874 0.648447 5.70697 0.341955 0.348681 -0.0442097 -0.43845 -0.619962 -0.648245 
24 19.1749 6.78924 5.91851 0.177972 -0.310926 0.107749 0.013805 -0.610669 0.811167 
10 17.0646 5.50834 5.92068 -0.130736 0.104826 0.0753165 0.991969 1.27686 0.361702 
9 14.8984 6.62905 6.0414 0.469173 0.31965 0.0752639 0.773516 -0.273122 0.826244 
103 15.0033 1.81309 5.87064 0.122281 -0.0599747 0.145522 0.474952 0.0854869 -0.0808373 
120 15.7138 3.03911 5.93727 -0.659827 -0.249892 -0.203327 2.11219 -0.87402 -2.35571 
102 12.8354 2.93586 6.03191 0.529859 0.514231 0.0457514 -1.11233 -1.18157 -0.558094 
106 13.6196 1.77 6.02367 -0.350178 -0.64345 -0.116334 0.920264 -0.471045 -0.732442 
28 17.7571 6.72892 5.94872 0.35517 -0.00604223 0.0343746 0.978786 -0.0343745 0.576012 
94 4.90868 3.7052 6.09765 0 0 0 0 0 0 
111 4.90868 6.16519 6.09765 0 0 0 0 0 0 
82 4.90868 1.2452 6.09765 0 0 0 0 0 0 
98 9.30288 1.54637 6.11499 -0.217488 0.0498216 -0.163441 0.526426 0.268135 -1.52016 
84 7.20434 0.221121 6.01831 -0.450918 0.183835 -0.0809918 -1.53267 0.771154 -1.36309 
83 6.3485 1.35244 6.04143 -0.164056 0.14816 0.12052 -0.225888 1.99871 0.180552 
85 8.55905 0.352367 6.17534 0.452692 -0.162235 0.0635054 -0.39985 -0.750944 -0.979288 
97 8.50955 2.72462 6.06372 0.849615 0.0833377 0.101865 -1.43908 0.791042 -0.0137301 
51 6.31778 16.0635 6.08379 0.129228 -0.0725478 -0.0621734 -0.102989 0.313845 0.282544 
25 11.3218 10.123 6.12366 0.00408672 -0.228702 -0.012095 -0.884374 1.20284 1.18473 
136 9.18154 8.80535 6.11072 0.438487 0.0353214 0.0135467 -0.444529 0.908344 -1.63507 
144 9.16268 13.6929 6.13169 -0.348227 -0.298283 0.0903389 1.51014 2.4657 -0.143088 
12 11.3317 7.68989 6.09791 0.273934 0.116172 -0.101985 0.681143 0.868434 0.0508846 
7 10.6097 8.89326 6.10055 -0.618781 -0.121242 0.0462884 -0.36435 2.27846 -0.571492 
36 12.7256 12.6261 6.15908 -0.664561 -0.710296 0.0445915 -0.90258 -1.27092 -0.818211 
140 8.45723 12.4495 6.1524 -0.304154 0.13467 0.0607827 -0.681933 -1.41699 0.766592 
35 10.5686 13.763 6.18207 0.275903 -0.116792 -0.148311 0.224581 -1.86648 -1.52189 
198 13.4067 16.281 6.18665 0.526587 -0.362134 -0.0536009 -1.74595 2.09674 -1.25254 
60 17.7058 11.5548 6.09209 0.332339 -0.311286 0.0280791 0.0841972 1.88408 -0.736166 
59 15.5732 12.7017 6.12502 -0.100079 -0.183767 0.101759 1.60506 1.50372 1.71037 
58 13.4311 13.8413 6.16265 0.241884 0.490127 0.173619 0.424599 0.318145 -0.529965 
53 12.7034 15.0477 6.18606 -0.233437 0.0336985 -0.0471652 0.912286 -0.207503 0.855771 
195 16.9615 15.1708 6.17433 0.249278 0.0901787 -0.067786 0.37637 0.21595 1.13494 
43 17.7258 9.12497 6.06776 0.00416889 0.453699 -0.00393245 0.77157 -1.0297 0.499542 
42 15.5817 10.2804 6.10683 0.266111 -0.530465 -0.0912798 -1.96281 -0.284675 0.112293 
196 19.1032 14.0252 6.12971 0.477065 0.0414615 -0.0679036 -0.254379 0.818212 0.853334 
39 19.1342 9.18519 6.05938 0.580687 0.335583 -0.0534751 2.01449 0.0495778 0.659092 
285 19.0865 16.4491 6.13683 -0.0532746 -0.22159 0.0637913 1.17885 0.181259 1.82825 
26 13.4586 8.98038 6.12045 -0.0834927 0.286791 -0.147921 0.866489 2.56864 0.281219 
22 14.8712 9.05181 6.08903 0.176753 0.0274467 0.147948 -0.675104 0.329495 -1.50333 
23 17.0193 7.91328 6.04734 -0.227882 -0.0539479 -0.0872155 0.547146 -0.612807 0.0613863 
27 15.6032 7.8495 6.08501 0.190234 0.303443 -0.100083 0.160205 0.0106394 -0.0390647 
289 17.6729 16.3921 6.14105 0.0572141 0.0914055 0.134063 0.468316 0.349729 0.616703 
57 11.2813 14.9848 6.17334 0.310052 0.381653 0.0641434 -1.95421 0.400103 0.622784 
41 13.4493 11.4099 6.13953 -0.419459 0.386324 -0.004676 0.138986 0.707902 1.95968 
199 15.5505 15.1133 6.18161 0.054901 0.749269 -0.00551304 0.353005 -0.0931753 0.224943 
21 12.7327 10.188 6.13003 0.0899222 -0.140525 -0.0650924 0.687776 0.0119186 1.12919 
37 14.8558 11.4756 6.10954 0.331856 0.346535 0.0529519 -0.50995 -1.56008 2.48551 
54 14.8456 13.9047 6.18764 -0.329964 -0.538282 -0.237065 -0.00808014 -0.682628 -0.414647 
200 17.6977 13.9725 6.13872 -0.274629 0.173169 -0.00965392 -0.00969597 1.40427 0.692687 
55 16.9913 12.7568 6.10731 -0.570758 -0.136704 0.0463889 -0.246154 1.01327 0.251825 
40 11.2981 12.5599 6.16773 0.424708 -0.162471 -0.0215397 -0.247003 1.89071 0.750302 
141 9.1795 11.2374 6.17293 0.134143 0.464213 -0.0997868 1.44243 -2.28125 -1.20549 
20 10.5978 11.3237 6.14735 -0.338899 -0.00719141 0.0961919 1.15415 0.867383 2.3473 
126 6.32873 8.68475 6.11433 -0.0505951 0.190737 0.126592 -0.898465 -1.03532 0.796648 
135 8.4628 10.0142 6.15655 -0.322109 -0.264203 0.0334497 0.427713 1.28953 0.894945 
134 7.04335 9.92456 6.17671 -0.20283 0.369452 -0.20673 0.422033 -0.575137 -0.137479 
133 6.31296 11.1449 6.16072 0.710142 -0.256687 -0.143893 -0.471108 -2.26343 -0.0771936 
8 12.7469 7.75779 6.07516 0.156362 0.394006 0.139944 -0.060337 -0.168809 0.259308 
303 19.0777 18.855 6.14371 0.448609 0.241254 -0.0337473 0.0224634 -1.0571 -0.813255 
66 7.02868 17.2983 6.08462 -0.0169398 0.342662 -0.0252295 0.331457 0.336086 -0.0767073 
293 7.02713 22.2024 6.0829 0.285614 0.232953 0.163091 -0.0800727 0.932915 1.38947 
206 6.31716 20.9771 6.07114 -0.0241097 -0.193624 0.0861864 0.690436 -0.827233 -0.443877 
318 7.0297 24.6592 6.10887 0.261891 -0.0937662 0.0535046 -0.829695 -0.851066 -1.00295 
330 11.2772 24.7471 6.07761 0.025859 0.0865439 0.0263908 -1.44641 0.14402 0.71301 
288 15.5422 17.5534 6.14942 -0.300915 -0.332537 0.0392268 -0.85542 0.218127 -1.80435 
284 16.9523 17.6001 6.14817 0.188058 -0.0815454 -0.130159 0.690037 0.218257 -0.416729 
292 6.31945 23.4274 6.11842 0.216518 -0.113375 -0.17772 0.576987 -0.608862 0.257096 
306 19.8074 17.6544 6.16327 0.0121076 0.215334 -0.139181 0.24732 0.788312 0.268798 
137 4.90868 13.5452 6.09765 0 0 0 0 0 0 
132 4.90868 11.0852 6.09765 0 0 0 0 0 0 
125 4.90868 8.62519 6.09765 0 0 0 0 0 0 
50 4.90868 16.0052 6.09765 0 0 0 0 0 0 
56 19.1196 11.5986 6.0942 -0.125883 0.419317 0.028872 -1.60713 0.296175 -0.186496 
138 6.32096 13.5958 6.09541 0.138043 0.347981 0.0689975 -0.52604 0.938816 -0.236718 
194 14.8263 16.3261 6.17318 0.00839424 -0.00834314 0.0248223 1.96589 -0.690727 0.131263 
38 17.0015 10.3302 6.08136 -0.365249 0.0789125 0.0538073 1.34995 -1.03965 0.661957 
52 10.5672 16.2032 6.15013 -0.415029 -0.503469 0.0018005 -1.00315 -1.11692 -1.61766 
139 7.03482 12.3776 6.14697 0.158304 0.157111 -0.0823794 -0.944946 -1.05875 -0.131172 
68 9.14289 16.1359 6.11163 0.798321 0.132699 -0.00730668 -0.554531 -0.110123 -0.0961512 
142 7.02566 14.8431 6.07255 0.110267 -0.323196 0.045486 -1.97685 -1.43293 -1.11368 
143 8.44142 14.9011 6.08595 -0.173154 0.0803391 0.142172 0.862606 -0.215502 -1.69664 
305 17.6739 18.8142 6.09232 -0.200862 -0.390493 0.250888 -1.51723 -0.248744 -0.884494 
197 11.285 17.423 6.14097 -0.235781 0.57664 0.0794506 0.357034 -1.55748 -0.193096 
193 12.6954 17.4877 6.18434 -0.180194 0.0604386 -0.162423 -0.0441739 -0.237914 -1.56045 
361 19.7908 24.9363 6.05317 -0.171815 -0.51397 0.126276 0.814698 -1.15339 0.30444 
319 8.45203 24.7 6.12423 -0.881588 0.0380957 -0.0555491 0.794521 -0.669716 -0.868612 
320 9.13645 23.4762 6.1028 0.963822 0.0943784 0.0661214 0.560122 -1.49209 -0.982847 
309 10.5564 23.5257 6.09599 0.208443 -0.226941 -0.0992131 0.809475 -0.831417 -0.266563 
342 19.7981 22.5037 6.10981 -0.182228 -0.168603 -0.153884 -0.871344 -0.19741 0.653741 
322 19.0826 21.2874 6.10842 -0.0902831 -0.140918 0.103731 -0.0929356 -0.346095 -1.07371 
328 12.6927 24.7865 6.06352 -0.0116656 0.0429723 0.146673 -0.03488 0.475047 -1.09476 
302 16.9561 20.0113 6.0741 -0.153004 0.825472 0.0590209 0.859388 -1.0858 0.410769 
192 10.5697 18.6464 6.12833 -0.279836 -0.506641 -0.176373 0.686615 -0.292656 -0.061523 
310 12.7006 22.3575 6.08474 -0.424395 -0.295055 -0.0540522 -0.436519 0.594741 -1.2206 
312 13.4059 21.1392 6.08944 0.3007 0.350573 -0.108138 -0.156169 0.0101711 -0.933446 
321 16.9426 22.4472 6.06831 0.32608 0.303667 0.146119 -0.0198393 -0.0376627 2.85995 
283 14.8175 18.7587 6.13317 0.145454 0.0459002 -0.117898 0.0694225 1.33236 0.511141 
323 17.6718 21.2415 6.1023 -0.416745 -0.204228 -0.155438 0.880317 0.105738 -0.965825 
329 14.8204 23.6169 6.09833 0.0207313 0.716959 -0.0946425 0.62158 1.28863 1.50664 
331 13.4111 23.5705 6.08715 -0.0274967 0.557433 -0.0167487 0.313187 -0.0358566 -0.387921 
332 15.5327 22.4169 6.08959 0.183362 -0.570519 -0.119489 1.10332 -0.0444305 2.41498 
348 16.9471 24.8963 6.07138 0.0123781 -0.211035 0.00862793 -0.321393 -0.243259 0.433188 
351 15.5337 24.8465 6.0848 -0.245737 0.230436 -0.0203775 1.59313 -0.217721 -1.4514 
352 17.6576 23.6749 6.06332 0.0815902 -0.0282722 0.0715158 -0.158929 0.279518 -0.261219 
287 13.405 18.7149 6.13467 -0.0911981 -0.0882484 -0.00789378 -0.657676 1.54283 -0.348343 
286 11.276 19.8666 6.08335 0.310871 0.22853 0.110991 -1.55023 -0.309477 0.779603 
304 15.5394 19.9741 6.07657 0.0451925 0.296844 0.100034 -1.1744 0.673564 -2.09837 
311 11.2846 22.3127 6.07306 -0.21798 -0.0110237 0.114074 1.71243 -0.396717 0.802246 
282 12.6838 19.9266 6.091 0.370747 -0.421518 0.112224 0.357377 0.620258 -0.284958 
301 14.8244 21.1928 6.06973 -0.13568 -0.369295 0.128602 -1.23676 0.274615 0.312656 
64 4.90868 18.4652 6.09765 0 0 0 0 0 0 
291 4.90868 23.3852 6.09765 0 0 0 0 0 0 
205 4.90868 20.9252 6.09765 0 0 0 0 0 0 
341 19.0735 23.706 6.08166 0.135017 0.577451 -0.0767263 1.76255 2.60774 -0.0607888 
324 19.79 20.0747 6.14727 0.563567 0.0469096 -0.124623 0.669527 1.03278 0.684783 
295 9.15473 21.0285 6.07884 0.346186 0.305791 0.0373448 -2.45152 -0.525391 1.27644 
67 8.44283 17.3544 6.09067 -0.132984 0.237712 0.0481574 -0.412041 -0.310384 1.52168 
209 9.15137 18.5976 6.091 -0.0119716 -0.450859 0.0185469 -0.617419 0.95871 -0.682264 
208 8.43403 19.8133 6.07763 0.0408567 -0.436796 0.0174461 0.352228 -0.312892 -0.489843 
294 8.44944 22.2426 6.11078 -0.725826 0.132175 -0.192604 -0.839826 -0.0706232 -1.83434 
65 6.3244 18.5286 6.08012 -0.303324 -0.792393 -0.00673161 -1.48871 -1.1756 -0.548348 
281 10.5745 21.0827 6.08834 -0.546857 0.00630253 -0.0736671 1.09815 1.66748 2.16841 
207 7.01947 19.7563 6.06205 0.453023 0.34225 0.0741805 0.232074 0.525763 -0.811358 
338 7.02738 27.11 6.09867 0.450311 -0.0629181 0.0215615 0.120619 1.0249 0.906932 
237 17.6585 30.9834 6.07267 -0.586559 -0.175292 -0.144283 0.155735 0.941917 0.0224489 
232 16.9357 32.1901 6.0611 0.390148 0.285597 -0.0178807 -0.347346 -0.182283 0.107067 
363 11.2738 29.6599 6.04566 -0.114555 -0.036497 0.011625 0.264131 0.234065 1.46179 
210 10.5517 30.8805 6.06707 0.633641 -0.22098 -0.0961722 1.90523 -0.0635273 0.172238 
317 6.32331 25.8769 6.10403 -0.072599 0.209871 -0.0595739 -0.32117 0.558684 -1.1589 
360 9.1584 28.3873 6.10523 -0.617702 -0.131082 -0.194348 0.681944 1.26411 -0.554984 
349 11.2727 27.2112 6.05914 -0.00879668 -0.453048 0.130952 -0.640625 1.07187 -1.16566 
340 9.15512 25.9308 6.11113 0.0703268 -0.0880549 0.0272251 -0.36398 2.21674 -0.0548514 
248 19.0631 33.4363 6.06747 0.278955 0.726135 -0.048351 -1.89592 0.596141 0.351198 
252 17.6535 33.4138 6.06667 -0.265672 -0.269162 -0.0384019 -0.754946 -0.83621 0.955904 
218 14.8088 30.9544 6.01732 0.0693302 -0.391318 -0.0221991 -0.880268 0.442196 -0.369919 
253 19.7758 32.2346 6.04332 0.347234 -0.701419 0.152509 -1.86487 0.935805 -0.998096 
345 10.558 28.4338 6.04562 0.639433 -0.282988 0.167571 0.269924 -0.695795 -2.27958 
219 16.9358 29.7679 6.03314 -0.116418 0.113299 0.136304 -0.381146 -0.669041 -0.939192 
212 14.8174 28.5114 6.05642 -0.0682281 -0.194826 -0.133822 -0.645644 1.8806 -1.87211 
223 15.5177 29.7355 6.02169 0.395565 0.12539 0.0718758 -1.01635 -0.17274 1.92494 
327 10.567 25.9637 6.10067 0.259318 0.639285 -0.17505 0.692838 0.21923 -1.53299 
222 13.4005 30.9112 6.02787 -0.293054 0.39235 -0.0297595 -0.0701538 -0.993638 -1.10147 
364 13.407 28.4631 6.06151 -0.27693 0.183188 -0.0416443 -0.0601907 1.61539 1.25382 
381 9.15954 33.2785 6.06614 -0.23912 0.437491 0.0843721 -2.09772 -0.627105 0.905826 
233 19.0618 31.0073 6.06069 0.487086 0.206655 0.00499203 0.306672 -0.723003 0.372432 
211 12.6921 29.6845 6.03598 -0.157604 -0.0737752 0.0960783 -2.82573 0.510918 -0.0882293 
346 12.6917 27.2378 6.06934 -0.160584 -0.0295012 0.0236811 -0.481479 1.35925 -0.184401 
339 8.45177 27.1506 6.09631 -0.448285 0.206614 0.0612106 -1.86811 -0.919377 -1.03671 
276 8.44349 41.8725 6.07772 0.0563828 0.0357994 0.205089 0.340599 1.64783 -0.614285 
275 7.0338 41.8505 6.11287 -0.24705 0.0713712 -0.189888 1.61258 1.29463 1.14248 
260 6.32672 40.6193 6.0937 -0.166823 0.280742 0.0332593 -0.583379 -0.0136441 1.6303 
873 14.8081 43.1627 6.08034 0.336862 0.0479593 0.179957 -0.805419 0.0182255 -1.17287 
383 6.32429 38.1641 6.0929 -0.0550626 0.242742 -0.109712 0.730613 -0.585245 -0.0238572 
874 16.9372 41.9668 6.07037 -0.0623288 -0.402262 0.142022 0.231742 -0.240496 -4.69843 
789 15.521 39.4977 6.13282 0.176321 -0.0513411 -0.0968181 -0.429566 1.03178 -0.297026 
263 14.8102 38.2735 6.11148 0.329135 -0.149347 -0.0688191 -0.666986 0.77065 0.192836 
265 19.0708 35.8689 6.04697 -0.17645 0.13675 0.0685542 -0.140115 0.47741 -1.31846 
264 16.9428 37.0557 6.06814 -0.117336 0.41479 0.000877608 0.235335 1.90248 0.579109 
268 15.5249 37.05 6.06586 0.0894424 0.267606 0.123398 -0.669884 0.401584 -0.296336 
791 19.7753 37.0971 6.04275 -0.0738677 -0.0472026 -0.065936 -0.125504 -0.0502864 -0.943345 
786 19.06 38.3135 6.03428 0.315473 0.186698 0.0461232 -0.323059 0.0161879 0.042826 
880 19.7791 39.5409 6.03356 -0.197109 -0.277497 0.0872173 -0.879968 -0.797901 0.781596 
270 19.7915 34.6589 6.06073 -0.0706244 -0.361287 -0.153659 0.445698 -1.22065 0.0914263 
784 14.8099 40.719 6.1148 -0.17484 -0.0397422 0.055901 -0.218201 0.830766 -0.0449228 
790 17.6504 38.2875 6.06583 -0.272516 0.0621576 -0.026733 1.36475 -1.04212 0.734768 
387 7.03731 39.3998 6.07892 -0.33385 -0.436618 0.0733836 -1.0056 1.51382 -2.22198 
370 4.90868 33.2252 6.09765 0 0 0 0 0 0 
356 4.90868 30.7652 6.09765 0 0 0 0 0 0 
336 4.90868 28.3052 6.09765 0 0 0 0 0 0 
316 4.90868 25.8452 6.09765 0 0 0 0 0 0 
359 8.44244 29.6043 6.10262 0.0159626 0.0853816 0.070752 -0.49926 1.34983 -0.415098 
216 10.5758 33.3179 6.05853 -0.716435 0.07579 -0.0267228 -0.864283 -0.60114 0.60731 
358 7.03078 29.5662 6.12269 -0.378417 0.0376014 -0.130288 0.75372 2.49907 -1.55732 
373 8.43299 32.0596 6.0927 0.441747 -0.124267 -0.0275614 -0.455295 -0.979671 0.633057 
372 7.02517 32.0311 6.10299 -0.110723 -0.700763 -0.0194845 0.847707 -1.54903 -1.20588 
236 15.5273 32.1648 6.01773 -0.134798 0.246612 0.17581 -0.387728 0.418091 -2.21456 
231 14.8173 33.3829 6.0579 -0.377599 -0.1293 -0.154565 1.58767 1.1416 -0.0118792 
235 13.4017 33.3665 6.05772 -0.097768 -0.569892 -0.0951461 -1.55526 -1.77955 1.82514 
224 17.6476 28.5582 6.0531 0.180396 -0.372134 -0.118631 0.497013 0.0917571 0.143803 
217 12.6828 32.1361 6.03614 0.309658 -0.153419 0.0235105 -2.56867 0.661617 -0.170223 
374 9.14631 30.8374 6.09915 -0.354713 0.0512334 -0.0800265 1.3327 0.711865 1.11286 
221 11.2682 32.1024 6.03228 0.405918 -0.24818 0.128305 -0.206438 0.0197411 0.453918 
225 19.7885 27.3612 6.02795 -0.407956 0.207613 0.0406734 1.25471 0.355187 -1.77994 
214 19.0749 26.1441 6.05905 -0.0906688 0.163495 -0.0586334 1.97881 0.267519 -0.770896 
366 17.6613 26.1219 6.068 -0.209262 -0.144539 -0.103143 -0.933264 0.901517 -0.0301025 
213 16.9385 27.3354 6.04317 0.408814 -0.155878 0.0963625 -1.86976 0.252446 3.11783 
347 14.8141 26.069 6.07376 0.348202 -0.238561 -0.0275971 0.136345 0.322128 0.0631619 
365 15.5341 27.2979 6.03648 -0.565073 -0.336069 0.209171 -0.616585 2.61761 -0.199744 
220 19.0614 28.5721 6.03446 0.310991 0.174257 0.107182 -2.30579 0.575332 -0.457528 
238 19.78 29.7951 6.0556 -0.312363 -0.050704 -0.024758 -2.39484 -0.675941 -0.388826 
371 6.31999 33.2407 6.08146 -0.0901036 0.616316 0.112003 -0.0522729 1.06702 1.70418 
350 13.4021 26.0142 6.07954 -0.0955355 0.33565 -0.0556155 -0.325867 1.1594 -1.07722 
337 6.32212 28.3283 6.08921 0.0272188 0.47353 0.103441 2.16739 -0.0251907 0.844076 
357 6.31555 30.7945 6.1146 0.541895 -0.0479957 -0.00558055 -0.882073 -0.653012 1.09159 
877 13.3963 43.1453 6.11478 -0.115321 0.0624889 -0.118839 -0.485618 0.331944 -0.182832 
878 15.5245 41.9399 6.11321 -0.220371 0.311727 -0.228832 0.0138602 -0.132396 -0.294982 
262 12.6895 39.4713 6.10147 -0.2013 -0.0484215 -0.000217754 -0.121507 1.22707 -1.71289 
785 16.9404 39.5137 6.10101 -0.248974 -0.194746 -0.0258567 3.08395 0.22727 0.164332 
244 10.5661 38.2237 6.07245 0.129666 0.107597 0.127927 0.721294 0.675837 -0.990391 
267 13.3996 38.2514 6.10642 -0.111713 0.0211191 -0.0182714 0.640345 -0.3793 -0.0184889 
783 12.6744 41.9321 6.1073 0.501633 -0.779947 -0.0293606 0.456965 1.95514 0.177365 
896 19.7874 41.9789 6.09715 -0.311533 -0.329671 0.00217076 -0.388365 -0.236049 1.39188 
879 17.6402 40.7409 6.07825 0.438278 0.0819686 0.0632531 0.399591 -0.461073 -0.689532 
875 19.0617 40.759 6.08538 0.085356 0.00410352 -0.0935695 -2.26721 0.457872 -0.253374 
788 13.3888 40.6955 6.09992 0.218111 0.661949 0.0811913 -0.404796 -0.453677 0.334456 
269 17.6521 35.8372 6.0691 0.207737 0.276198 -0.0940069 -0.908373 0.781218 0.938695 
799 9.13766 43.1081 6.11299 -0.0304485 -0.0103568 -0.18997 0.807367 0.200346 -0.07542 