ITEM: TIMESTEP
5600
ITEM: NUMBER OF ATOMS
4798
ITEM: BOX BOUNDS ff ff ff
-10.3577 110.358
-10.0998 131.9
-100.402 112.598
ITEM: ATOMS id x y z fx fy fz vx vy vz 
72 -0.062301 2.4752 6.09765 0 0 0 0 0 0 
110 4.19854 7.39519 6.09765 0 0 0 0 0 0 
109 2.77826 7.39519 6.09765 0 0 0 0 0 0 
93 4.19854 4.9352 6.09765 0 0 0 0 0 0 
92 2.77826 4.9352 6.09765 0 0 0 0 0 0 
91 2.06812 6.16519 6.09765 0 0 0 0 0 0 
87 0.647839 6.16519 6.09765 0 0 0 0 0 0 
86 -0.062301 7.39519 6.09765 0 0 0 0 0 0 
81 4.19854 2.4752 6.09765 0 0 0 0 0 0 
80 2.77826 2.4752 6.09765 0 0 0 0 0 0 
79 2.06812 3.7052 6.09765 0 0 0 0 0 0 
78 0.647839 3.7052 6.09765 0 0 0 0 0 0 
77 -0.062301 4.9352 6.09765 0 0 0 0 0 0 
76 4.19854 0.015197 6.09765 0 0 0 0 0 0 
75 2.77826 0.015197 6.09765 0 0 0 0 0 0 
74 2.06812 1.2452 6.09765 0 0 0 0 0 0 
73 0.647839 1.2452 6.09765 0 0 0 0 0 0 
6 -0.062301 12.3152 6.09765 0 0 0 0 0 0 
131 4.19854 12.3152 6.09765 0 0 0 0 0 0 
130 2.77826 12.3152 6.09765 0 0 0 0 0 0 
124 4.19854 9.85519 6.09765 0 0 0 0 0 0 
123 2.77826 9.85519 6.09765 0 0 0 0 0 0 
122 2.06812 11.0852 6.09765 0 0 0 0 0 0 
117 0.647839 11.0852 6.09765 0 0 0 0 0 0 
108 2.06812 8.62519 6.09765 0 0 0 0 0 0 
100 0.647839 8.62519 6.09765 0 0 0 0 0 0 
99 -0.062301 9.85519 6.09765 0 0 0 0 0 0 
34 4.19854 14.7752 6.09765 0 0 0 0 0 0 
33 2.77826 14.7752 6.09765 0 0 0 0 0 0 
32 2.06812 16.0052 6.09765 0 0 0 0 0 0 
31 0.647839 16.0052 6.09765 0 0 0 0 0 0 
19 2.06812 13.5452 6.09765 0 0 0 0 0 0 
18 0.647839 13.5452 6.09765 0 0 0 0 0 0 
17 -0.062301 14.7752 6.09765 0 0 0 0 0 0 
300 4.19854 24.6152 6.09765 0 0 0 0 0 0 
299 2.77826 24.6152 6.09765 0 0 0 0 0 0 
204 4.19854 22.1552 6.09765 0 0 0 0 0 0 
203 2.77826 22.1552 6.09765 0 0 0 0 0 0 
202 2.06812 23.3852 6.09765 0 0 0 0 0 0 
191 0.647839 23.3852 6.09765 0 0 0 0 0 0 
190 -0.062301 24.6152 6.09765 0 0 0 0 0 0 
71 2.06812 20.9252 6.09765 0 0 0 0 0 0 
70 0.647839 20.9252 6.09765 0 0 0 0 0 0 
69 -0.062301 22.1552 6.09765 0 0 0 0 0 0 
63 4.19854 19.6952 6.09765 0 0 0 0 0 0 
62 2.77826 19.6952 6.09765 0 0 0 0 0 0 
49 4.19854 17.2352 6.09765 0 0 0 0 0 0 
48 2.77826 17.2352 6.09765 0 0 0 0 0 0 
47 2.06812 18.4652 6.09765 0 0 0 0 0 0 
46 0.647839 18.4652 6.09765 0 0 0 0 0 0 
45 -0.062301 19.6952 6.09765 0 0 0 0 0 0 
30 -0.062301 17.2352 6.09765 0 0 0 0 0 0 
355 4.19854 31.9952 6.09765 0 0 0 0 0 0 
354 2.77826 31.9952 6.09765 0 0 0 0 0 0 
353 2.06812 33.2252 6.09765 0 0 0 0 0 0 
344 0.647839 33.2252 6.09765 0 0 0 0 0 0 
335 4.19854 29.5352 6.09765 0 0 0 0 0 0 
334 2.77826 29.5352 6.09765 0 0 0 0 0 0 
333 2.06812 30.7652 6.09765 0 0 0 0 0 0 
326 0.647839 30.7652 6.09765 0 0 0 0 0 0 
325 -0.062301 31.9952 6.09765 0 0 0 0 0 0 
315 4.19854 27.0752 6.09765 0 0 0 0 0 0 
314 2.77826 27.0752 6.09765 0 0 0 0 0 0 
313 2.06812 28.3052 6.09765 0 0 0 0 0 0 
308 0.647839 28.3052 6.09765 0 0 0 0 0 0 
307 -0.062301 29.5352 6.09765 0 0 0 0 0 0 
298 2.06812 25.8452 6.09765 0 0 0 0 0 0 
297 0.647839 25.8452 6.09765 0 0 0 0 0 0 
296 -0.062301 27.0752 6.09765 0 0 0 0 0 0 
215 -0.062301 36.9152 6.09765 0 0 0 0 0 0 
376 4.19854 36.9152 6.09765 0 0 0 0 0 0 
375 2.77826 36.9152 6.09765 0 0 0 0 0 0 
369 4.19854 34.4552 6.09765 0 0 0 0 0 0 
368 2.77826 34.4552 6.09765 0 0 0 0 0 0 
367 2.06812 35.6852 6.09765 0 0 0 0 0 0 
362 0.647839 35.6852 6.09765 0 0 0 0 0 0 
343 -0.062301 34.4552 6.09765 0 0 0 0 0 0 
258 4.19854 41.8352 6.09765 0 0 0 0 0 0 
257 2.77826 41.8352 6.09765 0 0 0 0 0 0 
256 2.06812 43.0652 6.09765 0 0 0 0 0 0 
255 0.647839 43.0652 6.09765 0 0 0 0 0 0 
243 4.19854 39.3752 6.09765 0 0 0 0 0 0 
242 2.77826 39.3752 6.09765 0 0 0 0 0 0 
241 2.06812 40.6052 6.09765 0 0 0 0 0 0 
240 0.647839 40.6052 6.09765 0 0 0 0 0 0 
239 -0.062301 41.8352 6.09765 0 0 0 0 0 0 
228 2.06812 38.1452 6.09765 0 0 0 0 0 0 
227 0.647839 38.1452 6.09765 0 0 0 0 0 0 
226 -0.062301 39.3752 6.09765 0 0 0 0 0 0 
254 -0.062301 44.2952 6.09765 0 0 0 0 0 0 
905 4.19854 51.6752 6.09765 0 0 0 0 0 0 
904 2.77826 51.6752 6.09765 0 0 0 0 0 0 
890 4.19854 49.2152 6.09765 0 0 0 0 0 0 
889 2.77826 49.2152 6.09765 0 0 0 0 0 0 
888 2.06812 50.4452 6.09765 0 0 0 0 0 0 
887 0.647839 50.4452 6.09765 0 0 0 0 0 0 
886 -0.062301 51.6752 6.09765 0 0 0 0 0 0 
794 4.19854 46.7552 6.09765 0 0 0 0 0 0 
793 2.77826 46.7552 6.09765 0 0 0 0 0 0 
792 2.06812 47.9852 6.09765 0 0 0 0 0 0 
781 0.647839 47.9852 6.09765 0 0 0 0 0 0 
780 -0.062301 49.2152 6.09765 0 0 0 0 0 0 
280 2.06812 45.5252 6.09765 0 0 0 0 0 0 
279 0.647839 45.5252 6.09765 0 0 0 0 0 0 
278 -0.062301 46.7552 6.09765 0 0 0 0 0 0 
272 4.19854 44.2952 6.09765 0 0 0 0 0 0 
271 2.77826 44.2952 6.09765 0 0 0 0 0 0 
959 4.19854 59.0552 6.09765 0 0 0 0 0 0 
958 2.77826 59.0552 6.09765 0 0 0 0 0 0 
957 2.06812 60.2852 6.09765 0 0 0 0 0 0 
952 0.647839 60.2852 6.09765 0 0 0 0 0 0 
945 4.19854 56.5952 6.09765 0 0 0 0 0 0 
944 2.77826 56.5952 6.09765 0 0 0 0 0 0 
943 2.06812 57.8252 6.09765 0 0 0 0 0 0 
934 0.647839 57.8252 6.09765 0 0 0 0 0 0 
933 -0.062301 59.0552 6.09765 0 0 0 0 0 0 
925 4.19854 54.1352 6.09765 0 0 0 0 0 0 
924 2.77826 54.1352 6.09765 0 0 0 0 0 0 
923 2.06812 55.3652 6.09765 0 0 0 0 0 0 
916 0.647839 55.3652 6.09765 0 0 0 0 0 0 
915 -0.062301 56.5952 6.09765 0 0 0 0 0 0 
903 2.06812 52.9052 6.09765 0 0 0 0 0 0 
898 0.647839 52.9052 6.09765 0 0 0 0 0 0 
897 -0.062301 54.1352 6.09765 0 0 0 0 0 0 
805 -0.062301 61.5152 6.09765 0 0 0 0 0 0 
966 4.19854 61.5152 6.09765 0 0 0 0 0 0 
965 2.77826 61.5152 6.09765 0 0 0 0 0 0 
862 4.19854 68.8952 6.09765 0 0 0 0 0 0 
861 2.77826 68.8952 6.09765 0 0 0 0 0 0 
848 4.19854 66.4352 6.09765 0 0 0 0 0 0 
847 2.77826 66.4352 6.09765 0 0 0 0 0 0 
846 2.06812 67.6652 6.09765 0 0 0 0 0 0 
845 0.647839 67.6652 6.09765 0 0 0 0 0 0 
844 -0.062301 68.8952 6.09765 0 0 0 0 0 0 
833 4.19854 63.9752 6.09765 0 0 0 0 0 0 
832 2.77826 63.9752 6.09765 0 0 0 0 0 0 
831 2.06812 65.2052 6.09765 0 0 0 0 0 0 
830 0.647839 65.2052 6.09765 0 0 0 0 0 0 
829 -0.062301 66.4352 6.09765 0 0 0 0 0 0 
818 2.06812 62.7452 6.09765 0 0 0 0 0 0 
817 0.647839 62.7452 6.09765 0 0 0 0 0 0 
816 -0.062301 63.9752 6.09765 0 0 0 0 0 0 
1828 4.19854 76.2752 6.09765 0 0 0 0 0 0 
1827 2.77826 76.2752 6.09765 0 0 0 0 0 0 
1826 2.06812 77.5052 6.09765 0 0 0 0 0 0 
1821 0.647839 77.5052 6.09765 0 0 0 0 0 0 
1813 4.19854 73.8152 6.09765 0 0 0 0 0 0 
1812 2.77826 73.8152 6.09765 0 0 0 0 0 0 
1811 2.06812 75.0452 6.09765 0 0 0 0 0 0 
1810 0.647839 75.0452 6.09765 0 0 0 0 0 0 
1809 -0.062301 76.2752 6.09765 0 0 0 0 0 0 
1717 4.19854 71.3552 6.09765 0 0 0 0 0 0 
1716 2.77826 71.3552 6.09765 0 0 0 0 0 0 
1715 2.06812 72.5852 6.09765 0 0 0 0 0 0 
1704 0.647839 72.5852 6.09765 0 0 0 0 0 0 
1703 -0.062301 73.8152 6.09765 0 0 0 0 0 0 
870 2.06812 70.1252 6.09765 0 0 0 0 0 0 
869 0.647839 70.1252 6.09765 0 0 0 0 0 0 
868 -0.062301 71.3552 6.09765 0 0 0 0 0 0 
1728 -0.062301 86.1152 6.09765 0 0 0 0 0 0 
1889 4.19854 86.1152 6.09765 0 0 0 0 0 0 
1888 2.77826 86.1152 6.09765 0 0 0 0 0 0 
1882 4.19854 83.6552 6.09765 0 0 0 0 0 0 
1881 2.77826 83.6552 6.09765 0 0 0 0 0 0 
1880 2.06812 84.8852 6.09765 0 0 0 0 0 0 
1875 0.647839 84.8852 6.09765 0 0 0 0 0 0 
1868 4.19854 81.1952 6.09765 0 0 0 0 0 0 
1867 2.77826 81.1952 6.09765 0 0 0 0 0 0 
1866 2.06812 82.4252 6.09765 0 0 0 0 0 0 
1857 0.647839 82.4252 6.09765 0 0 0 0 0 0 
1856 -0.062301 83.6552 6.09765 0 0 0 0 0 0 
1848 4.19854 78.7352 6.09765 0 0 0 0 0 0 
1847 2.77826 78.7352 6.09765 0 0 0 0 0 0 
1846 2.06812 79.9652 6.09765 0 0 0 0 0 0 
1839 0.647839 79.9652 6.09765 0 0 0 0 0 0 
1838 -0.062301 81.1952 6.09765 0 0 0 0 0 0 
1820 -0.062301 78.7352 6.09765 0 0 0 0 0 0 
1741 2.06812 87.3452 6.09765 0 0 0 0 0 0 
1740 0.647839 87.3452 6.09765 0 0 0 0 0 0 
2677 4.19854 95.9552 6.09765 0 0 0 0 0 0 
2676 2.77826 95.9552 6.09765 0 0 0 0 0 0 
1793 2.06812 94.7252 6.09765 0 0 0 0 0 0 
1792 0.647839 94.7252 6.09765 0 0 0 0 0 0 
1791 -0.062301 95.9552 6.09765 0 0 0 0 0 0 
1785 4.19854 93.4952 6.09765 0 0 0 0 0 0 
1784 2.77826 93.4952 6.09765 0 0 0 0 0 0 
1771 4.19854 91.0352 6.09765 0 0 0 0 0 0 
1770 2.77826 91.0352 6.09765 0 0 0 0 0 0 
1769 2.06812 92.2652 6.09765 0 0 0 0 0 0 
1768 0.647839 92.2652 6.09765 0 0 0 0 0 0 
1767 -0.062301 93.4952 6.09765 0 0 0 0 0 0 
1756 4.19854 88.5752 6.09765 0 0 0 0 0 0 
1755 2.77826 88.5752 6.09765 0 0 0 0 0 0 
1754 2.06812 89.8052 6.09765 0 0 0 0 0 0 
1753 0.647839 89.8052 6.09765 0 0 0 0 0 0 
1752 -0.062301 91.0352 6.09765 0 0 0 0 0 0 
1739 -0.062301 88.5752 6.09765 0 0 0 0 0 0 
2663 -0.062301 98.4152 6.09765 0 0 0 0 0 0 
2808 4.19854 103.335 6.09765 0 0 0 0 0 0 
2807 2.77826 103.335 6.09765 0 0 0 0 0 0 
2806 2.06812 104.565 6.09765 0 0 0 0 0 0 
2799 0.647839 104.565 6.09765 0 0 0 0 0 0 
2788 4.19854 100.875 6.09765 0 0 0 0 0 0 
2787 2.77826 100.875 6.09765 0 0 0 0 0 0 
2786 2.06812 102.105 6.09765 0 0 0 0 0 0 
2781 0.647839 102.105 6.09765 0 0 0 0 0 0 
2780 -0.062301 103.335 6.09765 0 0 0 0 0 0 
2773 4.19854 98.4152 6.09765 0 0 0 0 0 0 
2772 2.77826 98.4152 6.09765 0 0 0 0 0 0 
2771 2.06812 99.6452 6.09765 0 0 0 0 0 0 
2770 0.647839 99.6452 6.09765 0 0 0 0 0 0 
2769 -0.062301 100.875 6.09765 0 0 0 0 0 0 
2675 2.06812 97.1852 6.09765 0 0 0 0 0 0 
2664 0.647839 97.1852 6.09765 0 0 0 0 0 0 
2849 4.19854 110.715 6.09765 0 0 0 0 0 0 
2848 2.77826 110.715 6.09765 0 0 0 0 0 0 
2842 4.19854 108.255 6.09765 0 0 0 0 0 0 
2841 2.77826 108.255 6.09765 0 0 0 0 0 0 
2840 2.06812 109.485 6.09765 0 0 0 0 0 0 
2835 0.647839 109.485 6.09765 0 0 0 0 0 0 
2828 4.19854 105.795 6.09765 0 0 0 0 0 0 
2827 2.77826 105.795 6.09765 0 0 0 0 0 0 
2826 2.06812 107.025 6.09765 0 0 0 0 0 0 
2817 0.647839 107.025 6.09765 0 0 0 0 0 0 
2816 -0.062301 108.255 6.09765 0 0 0 0 0 0 
2798 -0.062301 105.795 6.09765 0 0 0 0 0 0 
2716 4.19854 113.175 6.09765 0 0 0 0 0 0 
2715 2.77826 113.175 6.09765 0 0 0 0 0 0 
2701 2.06812 111.945 6.09765 0 0 0 0 0 0 
2700 0.647839 111.945 6.09765 0 0 0 0 0 0 
2699 -0.062301 113.175 6.09765 0 0 0 0 0 0 
2688 -0.062301 110.715 6.09765 0 0 0 0 0 0 
2712 -0.062301 115.635 6.09765 0 0 0 0 0 0 
3636 4.19854 120.555 6.09765 0 0 0 0 0 0 
3635 2.77826 120.555 6.09765 0 0 0 0 0 0 
3634 2.06812 121.785 6.09765 0 0 0 0 0 0 
3623 0.647839 121.785 6.09765 0 0 0 0 0 0 
2753 2.06812 119.325 6.09765 0 0 0 0 0 0 
2752 0.647839 119.325 6.09765 0 0 0 0 0 0 
2751 -0.062301 120.555 6.09765 0 0 0 0 0 0 
2745 4.19854 118.095 6.09765 0 0 0 0 0 0 
2744 2.77826 118.095 6.09765 0 0 0 0 0 0 
2731 4.19854 115.635 6.09765 0 0 0 0 0 0 
2730 2.77826 115.635 6.09765 0 0 0 0 0 0 
2729 2.06812 116.865 6.09765 0 0 0 0 0 0 
2728 0.647839 116.865 6.09765 0 0 0 0 0 0 
2727 -0.062301 118.095 6.09765 0 0 0 0 0 0 
2714 2.06812 114.405 6.09765 0 0 0 0 0 0 
2713 0.647839 114.405 6.09765 0 0 0 0 0 0 
28 17.7829 6.7063 6.06053 -0.826153 0.344315 0.115457 0.537393 -0.693197 -3.19606 
90 11.5245 0.465156 5.76703 0.0741881 0.000735982 -0.000267002 0.0152817 -1.36787 0.0622095 
96 7.07964 2.61535 6.1109 0.272349 -0.349934 -0.0183045 -0.86839 0.179331 1.30256 
104 17.1727 0.737594 5.35557 -0.186399 -0.159547 -0.0897485 1.17124 1.27092 -1.48041 
106 13.6185 1.73324 5.88739 0.574781 -0.278507 -0.117965 2.12172 1.52712 0.967891 
105 11.4279 2.83478 5.99881 -0.189695 -0.19769 0.0108045 0.660651 1.37431 -0.0466289 
102 12.858 2.91193 5.96152 -0.512905 0.0985111 0.18213 -0.283238 0.179711 1.4964 
120 15.7172 3.02023 5.87158 -0.320963 0.0613573 -0.0570065 1.17136 0.229947 -0.229029 
88 10.7157 1.6031 5.9543 -0.104144 0.166185 -0.0864007 0.811347 1.39105 -2.95341 
103 15.0137 1.79551 5.74377 -0.285843 -0.0665393 0.0854929 -0.877256 -0.125286 -1.4856 
118 11.3678 5.24613 6.11488 0.309845 0.0230975 -0.147474 -0.241719 -0.211225 -0.787944 
115 9.24161 3.94292 6.12531 0.0455718 -0.0872944 -0.0693853 -0.519822 -1.03046 0.369195 
9 14.9209 6.63221 6.07047 -0.207621 -0.557735 -0.00729369 -0.146499 0.147627 -0.662341 
101 10.6668 4.00931 6.1012 -0.0155316 0.609659 -0.0572772 1.15166 -1.96338 -0.686293 
114 8.49807 5.13588 6.10533 -0.158638 0.200984 0.0548702 -1.82065 -0.945847 0.431331 
10 17.0714 5.4925 6.02037 0.334537 -0.172941 -0.0653307 0.578748 -0.246625 -0.431947 
2 12.7941 5.32818 6.06777 -0.170907 -0.202925 0.190254 1.06299 -0.714778 -2.26418 
4 17.1359 3.07841 5.82278 -0.0782785 0.167561 0.00460457 0.666038 -0.670371 -0.448406 
5 19.2766 1.93317 5.76884 0.33268 -0.551301 0.0149605 2.30797 -1.79322 1.83661 
24 19.1838 6.75085 6.07566 0.715201 0.473571 -0.182421 2.13372 -0.593354 -0.11031 
121 17.8932 1.90152 5.65235 0.181451 0.127152 0.0682757 -0.172854 1.3901 -0.112158 
119 13.5426 4.13436 6.04163 0.284189 0.366397 -0.199826 -0.97846 -1.14848 -0.864625 
11 19.2313 4.34937 5.88407 0.125105 -0.376125 0.111899 0.00415872 -1.43962 -0.222858 
14 15.662 5.43313 6.03621 -0.299332 0.0283301 -0.0444537 0.472427 -0.201064 0.719219 
13 13.499 6.55384 6.0837 0.404234 -0.197477 -0.063919 1.5849 -0.914005 0.854449 
15 17.8199 4.3054 5.93465 -0.0535502 -0.167801 -0.169842 0.35878 -0.808792 1.93302 
3 14.9618 4.2062 5.98008 0.065004 0.0145633 0.0458135 -0.31798 1.45439 1.74988 
107 15.8081 0.659323 5.47976 -0.116579 0.1482 0.0820031 3.86707 -0.404939 0.18443 
98 9.31479 1.53881 6.03765 -0.026246 -0.288019 0.091146 1.80561 1.57254 0.111802 
97 8.53377 2.71456 6.09669 -0.245287 0.202045 0.0175026 1.36305 -0.141992 0.928127 
85 8.57357 0.342619 6.13567 -0.242279 -0.0713524 -0.0378917 0.431391 -1.04614 2.01837 
83 6.3478 1.36591 6.10553 -0.147753 0.0518198 0.019692 -1.43827 -1.02712 0.601371 
84 7.19528 0.233765 6.08172 0.32491 -0.0616965 -0.0127318 -0.0367934 -0.756384 -0.576012 
94 4.90868 3.7052 6.09765 0 0 0 0 0 0 
111 4.90868 6.16519 6.09765 0 0 0 0 0 0 
82 4.90868 1.2452 6.09765 0 0 0 0 0 0 
95 6.33698 3.80612 6.10968 0.0873252 0.424881 0.016367 0.0798995 -0.745198 1.52903 
113 7.06893 5.0444 6.10938 -0.0869189 -0.164845 -0.0190973 0.612944 -0.552905 -1.2438 
112 6.33166 6.24844 6.08849 0.140388 0.150337 -0.0248566 -0.120095 -2.09814 -0.448131 
128 8.47217 7.56905 6.07448 0.239014 0.244424 -0.0198127 -0.498077 -0.726938 0.620231 
127 7.05089 7.48728 6.05669 -0.0509979 -0.0972484 0.0937981 0.319146 -1.2723 2.05966 
129 9.21575 6.36966 6.10101 -0.470412 -0.126282 -0.069216 0.501586 -0.677629 -1.13426 
1 10.6304 6.44641 6.09952 0.171094 0.0362046 -0.0630345 0.661693 0.462689 0.431919 
89 12.8859 0.533757 5.95185 0.04199 -0.0890971 0.0341384 0.72474 -1.92739 -1.13491 
51 6.32759 16.0609 6.09567 -0.159608 -0.291192 0.139384 -0.656282 0.396255 0.162897 
292 6.32873 23.4427 6.08603 -0.387367 -0.420611 0.0517099 0.580915 2.58542 -0.146831 
330 11.2778 24.7468 6.09622 0.00601618 0.451417 -0.047625 -0.129495 -0.0594913 -0.365893 
144 9.16845 13.6769 6.10819 0.298112 0.331565 -0.0590904 -0.486155 1.02267 0.0803519 
318 7.03445 24.6712 6.09953 -0.186191 0.0693361 0.00922006 0.642805 0.663836 0.205841 
206 6.32008 20.9825 6.12741 0.276649 -0.362876 -0.170087 -0.0236103 -0.441392 0.880202 
293 7.03131 22.2163 6.08119 -0.0884871 -0.0888201 0.105165 -0.564815 -0.785584 -0.884149 
140 8.46449 12.4559 6.09661 -0.855552 -0.727445 0.112626 -0.552929 0.204709 -0.232702 
35 10.5893 13.7285 6.10045 -0.452872 0.662561 -0.0365432 0.603274 -0.250575 -0.798649 
66 7.03659 17.2965 6.09523 0.165138 -0.0580888 -0.072059 -1.05535 -1.27102 1.67071 
40 11.3119 12.5327 6.10235 0.222902 -0.291442 0.0194941 0.0499684 0.0195723 -1.60897 
57 11.2978 14.9625 6.07959 0.188242 0.0616123 0.208109 0.867796 0.710955 0.428708 
27 15.6342 7.84505 6.0905 -0.565325 0.25549 -0.0424849 -0.495187 0.301988 -0.777416 
23 17.0363 7.90525 6.0837 0.903997 -0.123316 0.00244073 -1.62172 0.691283 -2.30076 
39 19.1551 9.17419 6.08388 0.68924 -0.282084 0.122801 -1.11477 1.29683 0.294897 
43 17.7534 9.12335 6.09752 -0.52021 -0.347822 -0.0327456 -1.18623 1.14449 0.911495 
68 9.16279 16.119 6.07563 0.127456 0.0785805 0.0944206 -0.782122 -0.984686 0.205106 
207 7.03514 19.7543 6.1192 -0.00627679 0.00629197 -0.0903353 1.81723 -0.0514795 -0.832628 
281 10.5743 21.0814 6.08042 -0.124226 0.52654 -0.0517645 1.63382 -1.64068 1.27555 
65 6.32198 18.5171 6.08322 0.219297 0.0736033 0.199931 -1.55632 0.660761 1.26031 
294 8.4418 22.2545 6.07357 0.215164 0.125088 -0.0228536 -1.12925 0.552711 2.0891 
208 8.45568 19.7919 6.10019 -0.161397 0.540826 -0.0287121 1.60212 -0.247444 0.602225 
361 19.7794 24.931 6.03074 0.583696 0.262003 0.0514266 0.84192 -0.186636 -1.51987 
67 8.45847 17.3397 6.08157 -0.299467 0.304723 0.0212482 -0.754564 -0.483967 -0.663772 
295 9.16053 21.0396 6.0632 -0.264158 -0.404457 0.147656 -0.77055 1.9597 1.09138 
319 8.44561 24.7117 6.09646 0.0277334 -0.0724691 -0.0804866 -0.247409 0.690162 -0.434543 
320 9.1457 23.4906 6.07642 0.293607 -0.2703 0.05867 0.597821 -1.02447 -1.48574 
309 10.5612 23.5267 6.09723 -0.0139025 0.178935 -0.0479832 0.106045 0.107782 0.316637 
342 19.7915 22.5043 6.05534 0.241332 0.129235 0.117475 0.152018 0.856304 0.334289 
328 12.6902 24.7965 6.07899 0.0844098 -0.422247 -0.0258487 2.56425 0.0150005 0.859697 
301 14.8216 21.1896 6.12299 0.400364 0.181909 0.00123878 0.756745 1.04029 -1.46658 
282 12.6965 19.9198 6.09606 -0.0689281 -0.147807 -0.0610746 1.47923 -0.850309 0.948652 
311 11.2805 22.3204 6.10351 -0.0254562 -0.592576 -0.078914 1.25821 -0.991796 0.0954073 
304 15.5438 19.9778 6.11458 -0.25015 -0.279858 -0.149511 0.304236 -1.53752 -0.315202 
286 11.2803 19.8701 6.06977 0.341959 -0.287295 0.100552 0.69939 -1.25763 0.304981 
287 13.4068 18.6996 6.0907 0.0242339 -0.113802 0.0130769 -0.413382 -0.0203757 -1.49515 
310 12.6966 22.3567 6.10442 -0.0643828 0.376618 -0.0624502 0.414727 1.109 -0.564757 
351 15.5236 24.8534 6.06573 -0.0858725 -0.00591308 -0.163543 1.10093 1.28381 -0.678496 
348 16.9307 24.8989 6.01679 0.395051 -0.61538 0.229817 -0.25509 1.1333 -0.505033 
312 13.4111 21.1487 6.11935 -0.0955831 -0.447243 -0.0060032 -0.232691 1.18431 -1.22413 
331 13.4154 23.5811 6.07202 -0.393695 0.0364677 0.106774 -0.0504777 -0.194458 2.5819 
329 14.8272 23.6207 6.07696 -0.254719 0.437983 0.0963135 -0.284985 0.215863 2.12058 
283 14.8214 18.7492 6.07949 0.383255 0.000640255 0.119694 -0.76447 -1.01148 -1.00869 
137 4.90868 13.5452 6.09765 0 0 0 0 0 0 
132 4.90868 11.0852 6.09765 0 0 0 0 0 0 
125 4.90868 8.62519 6.09765 0 0 0 0 0 0 
50 4.90868 16.0052 6.09765 0 0 0 0 0 0 
56 19.1535 11.5818 6.08154 -0.311749 -0.0531354 -0.00264241 -0.593279 0.379416 -0.194162 
138 6.32225 13.5976 6.14138 -0.151767 0.472673 -0.155998 -0.186886 1.71332 1.04468 
194 14.8452 16.3066 6.1087 -0.581438 0.216029 -0.00695259 -1.37832 -0.893736 0.121903 
38 17.0214 10.3151 6.08517 -0.199803 0.273633 -0.0684473 -0.562417 -1.28817 0.0751515 
52 10.5815 16.1742 6.07801 -0.281185 0.1714 -0.0415999 2.89205 0.31966 1.33927 
139 7.02866 12.3866 6.12133 0.980075 -0.185403 -0.0636475 1.2776 0.451369 -0.24371 
209 9.17107 18.5789 6.09872 -0.461343 -0.267433 -0.0480879 -1.17627 0.0487825 0.00942943 
142 7.03481 14.8327 6.13429 -0.229185 0.2467 -0.112326 -1.36896 0.387601 0.4197 
143 8.44495 14.8905 6.11621 0.389421 -0.0661326 -0.0305041 0.946848 0.950349 0.0305736 
305 17.6743 18.8125 6.11404 0.273567 -0.0459756 -0.0587989 1.26641 -1.41753 -2.42846 
197 11.2837 17.4139 6.0848 0.296962 -0.188387 -0.0184122 0.0518287 -1.55794 -1.00629 
193 12.7034 17.4607 6.10271 -0.131539 0.310128 -0.0246788 -1.08321 -0.643503 -1.11642 
324 19.8138 20.0839 6.09558 -0.563155 -0.430234 -0.0717469 0.837519 0.666869 1.39911 
341 19.0694 23.7161 6.05728 -0.184122 -0.23422 -0.0556754 -0.949108 1.17793 0.416867 
205 4.90868 20.9252 6.09765 0 0 0 0 0 0 
291 4.90868 23.3852 6.09765 0 0 0 0 0 0 
64 4.90868 18.4652 6.09765 0 0 0 0 0 0 
322 19.0828 21.2817 6.07629 0.252572 0.250842 -0.0617582 0.782635 0.730857 -1.29538 
352 17.651 23.6806 6.06487 0.23566 0.303828 -0.069415 -0.67947 1.40349 1.48122 
302 16.959 20.0181 6.09425 -0.251002 0.294927 0.0379696 0.338787 0.416511 -0.327392 
192 10.5777 18.6336 6.08713 0.171582 -0.00996147 -0.0461047 1.59497 0.113095 1.06394 
332 15.542 22.4176 6.12806 -0.028125 -0.562298 -0.226194 1.76865 1.0556 -0.00026177 
323 17.6735 21.2419 6.08155 -0.204643 0.0240582 0.0239384 0.0984627 -0.484091 0.820116 
321 16.9561 22.4558 6.08345 -0.280258 -0.21468 0.0963656 -1.57268 -0.562925 -1.09082 
25 11.3305 10.1024 6.07594 0.102542 -0.104028 0.0385207 -0.164254 -1.4202 0.411927 
290 19.8336 15.2252 6.09864 -0.0905086 -0.12679 0.0433402 -0.0191351 -2.61687 -0.651273 
306 19.8162 17.6564 6.12638 -0.257048 -0.0760243 -0.00090117 -0.0859022 1.11635 -0.191366 
136 9.19345 8.80648 6.08306 0.172494 -0.295178 -0.208028 2.32632 1.04964 -0.50892 
284 16.9685 17.5898 6.10135 -0.363265 0.00180486 0.116144 -0.39646 0.600213 0.609911 
288 15.5478 17.5345 6.09659 0.186161 0.259868 -0.0107688 0.983541 0.167051 -1.70559 
12 11.3512 7.67021 6.06651 -0.330944 0.290043 0.0715522 1.65097 -0.621665 -0.759813 
7 10.6203 8.8814 6.04791 -0.413337 -0.47469 0.163537 0.41039 -0.0103557 0.23534 
36 12.726 12.6046 6.11361 -0.0551073 -0.576283 -0.0280681 -0.385629 0.266662 0.205771 
198 13.4254 16.2498 6.1231 0.152477 0.229225 -0.0304815 -0.0452337 -1.59547 -0.333581 
60 17.7359 11.5297 6.06819 -0.0809815 0.210651 0.0766794 -0.378249 -1.18714 -0.00383182 
303 19.0888 18.8622 6.10735 0.274743 0.033608 0.0703416 1.33064 -1.34804 1.77512 
8 12.7635 7.74377 6.07818 0.17342 0.339374 0.084669 -2.72688 0.457168 0.324841 
133 6.32174 11.1517 6.08379 0.33185 -0.315334 0.0627315 0.22687 2.44938 0.289068 
134 7.05033 9.93284 6.07273 -0.485656 0.226505 -0.010916 1.03064 1.66912 0.0909117 
135 8.46518 10.0112 6.06556 0.0376725 -0.0268679 0.108001 -0.848169 0.797084 -0.922206 
126 6.32015 8.69863 6.0572 0.543578 0.000659435 0.0624571 -0.743897 -0.0277532 0.0891402 
20 10.6114 11.3018 6.09612 -0.779577 0.209382 -0.0484048 0.11058 0.838031 -0.484246 
141 9.18421 11.2369 6.10381 0.269943 0.26333 -0.0966456 -0.511114 -0.808485 -0.717285 
59 15.5791 12.6793 6.08335 0.126392 -0.378758 0.00918035 -0.0139205 -0.908548 -0.239144 
55 16.9992 12.7307 6.0657 -0.0516859 0.206748 0.0417659 -0.332547 1.3633 0.227608 
200 17.707 13.9618 6.07774 -0.177634 -0.206562 0.0461455 -1.04072 0.968014 -0.708197 
54 14.858 13.8813 6.0957 -0.568718 0.0207754 0.115464 -1.62257 1.18917 -0.499271 
37 14.8629 11.4514 6.09606 0.172497 0.579317 -0.0747709 0.673661 -0.101931 0.871147 
21 12.7386 10.1718 6.08701 0.218161 -0.406527 0.0331309 -0.0471632 -0.0493972 -0.912281 
199 15.561 15.103 6.09828 0.439875 0.129892 0.0824556 1.08838 0.716711 -1.09735 
41 13.4462 11.3885 6.09254 0.274487 0.625809 0.03593 -0.278088 -1.47916 0.938895 
58 13.4338 13.8258 6.1266 0.675268 -0.175391 -0.114148 -0.1224 1.73808 -0.0742196 
289 17.6898 16.3834 6.13405 0.126498 0.151813 -0.111547 -0.868468 0.42248 0.297093 
53 12.7153 15.0276 6.12768 -0.302726 0.0178327 -0.128137 -0.113377 -1.34656 0.670804 
195 16.9749 15.1698 6.10874 0.188202 -0.543545 -0.0679402 -0.277018 -0.84767 1.81433 
22 14.8962 9.04278 6.08158 -0.0130497 -0.0936803 0.111049 -1.77588 -0.42465 -1.938 
26 13.4792 8.9716 6.10382 -0.259961 -0.0345151 -0.175419 -1.21108 0.469166 1.03314 
285 19.106 16.4331 6.12633 -0.0493886 -0.0921987 -0.0656632 0.415294 -0.560908 -0.661423 
42 15.603 10.2659 6.07702 0.206667 -0.489582 0.124238 -1.65488 -2.66761 1.90784 
196 19.1225 13.9944 6.09737 -0.0366775 0.751338 -0.0138944 -0.606242 -0.107808 -2.74124 
338 7.03627 27.1177 6.12075 -0.26057 -0.309955 -0.0158421 1.02605 -0.526919 -0.281903 
237 17.6393 30.9727 6.03065 -0.114269 0.486457 0.180583 -0.0783622 -0.21349 -0.808236 
232 16.9327 32.2038 6.05246 0.0657616 -0.386756 -0.0432057 1.67143 -1.262 0.0342001 
363 11.2718 29.6603 6.10066 -0.154587 -0.0571109 -0.0500388 0.403281 -1.23678 -0.990051 
210 10.5516 30.8744 6.09261 0.639665 0.249756 -0.120828 0.537459 -0.574164 -0.248995 
317 6.31383 25.8854 6.10952 0.691518 0.266805 0.0129428 -1.50351 -0.729873 0.875393 
360 9.14772 28.3834 6.10167 0.0607879 0.000590375 0.141212 -0.185524 -3.58043 0.834431 
349 11.2699 27.2086 6.1125 -0.0727538 0.203907 -0.121333 1.10943 -0.486312 0.487244 
340 9.16882 25.9318 6.08477 -0.617344 0.10156 0.109714 -0.963702 0.931319 0.577598 
248 19.0675 33.4515 6.07752 -0.241961 0.369754 0.00457346 -0.401546 -1.21474 -1.6889 
252 17.6494 33.4277 6.07244 0.0178702 0.0528654 0.00670824 0.0256822 -0.752911 -0.370349 
218 14.8144 30.941 6.05942 -0.402139 0.322503 -0.155261 -1.04406 -0.798348 1.40732 
253 19.7744 32.2386 6.09312 -0.0883869 -0.427598 -0.201806 -0.139208 -1.0815 1.50188 
345 10.5591 28.4359 6.13046 0.234477 -0.583467 -0.134959 0.948081 -0.850159 -1.42221 
219 16.9234 29.7524 6.07084 -0.134495 0.320891 -0.139665 2.02253 0.948023 -0.735252 
212 14.8003 28.5004 6.02309 0.0688247 -0.129918 0.126592 -0.792455 -0.696068 1.97161 
223 15.5048 29.725 6.0481 0.676603 -0.227382 0.00966303 0.250766 -0.207978 -0.903458 
327 10.5738 25.9745 6.08991 0.113289 -0.166645 0.0885705 0.0372206 0.450356 1.4028 
222 13.4036 30.9127 6.02375 -0.20315 0.160246 0.198344 0.569346 0.577605 1.80499 
364 13.3829 28.4699 6.0233 0.334115 -0.0142885 0.214286 0.58738 -1.30789 -0.259655 
381 9.14475 33.29 6.08377 0.28455 -0.0584747 -0.0565089 -2.03495 -0.54322 0.937187 
233 19.0514 31.0099 6.04305 0.544221 0.448937 0.197403 -0.33733 -2.10373 0.663793 
211 12.6855 29.6952 6.0684 -0.193693 -0.232284 -0.155214 0.99785 1.40905 -0.80301 
346 12.6804 27.2424 6.07717 0.0652519 -0.162652 -0.0895574 0.393095 0.713735 -0.260395 
339 8.44924 27.1458 6.1166 0.082129 0.272243 -0.125217 2.21311 2.1154 0.0979321 
790 17.6495 38.3068 6.10496 -0.202685 -0.156141 0.0664896 1.40783 -0.75092 0.654736 
784 14.8078 40.7186 6.08284 -0.237898 -0.140394 -0.0418796 -1.16544 -0.77313 -0.152407 
270 19.778 34.6804 6.08271 0.196052 -0.580115 0.0691258 -0.857367 1.23131 0.528827 
880 19.7799 39.5522 6.11642 -0.0930791 -0.121406 -0.0414766 0.87115 1.17455 -0.548499 
383 6.30908 38.1637 6.07531 0.884925 0.082128 0.151515 0.809836 -0.102546 -0.476347 
874 16.932 41.9579 6.10121 0.0444596 0.0890841 -0.146149 1.24073 0.42137 0.404398 
789 15.5193 39.5047 6.09037 -0.0405433 -0.410985 0.0208646 -0.665739 1.17563 -0.362565 
263 14.8032 38.2748 6.07056 0.0386969 0.143607 0.258432 0.10051 -0.88201 0.43882 
265 19.0638 35.8859 6.12714 0.146057 0.521713 -0.210267 -0.014783 1.54277 0.102605 
264 16.9338 37.0771 6.09473 -0.0447021 0.761893 0.0452174 -0.8967 0.323599 0.37457 
268 15.518 37.0591 6.10066 0.0910996 0.0212036 -0.156819 1.30406 0.0359124 0.529232 
791 19.7852 37.1087 6.11664 -0.371882 0.0244479 0.0262061 1.18602 -0.768924 1.09637 
786 19.065 38.3277 6.11498 0.158543 -0.0124068 0.00432929 -0.1719 -1.38344 -0.532288 
359 8.44326 29.6026 6.11872 -0.369349 0.235791 0.0665074 0.424736 0.836457 -0.0732222 
216 10.5655 33.318 6.06303 -0.271823 -0.103414 0.0386301 -0.612754 -1.50737 1.35515 
378 6.31698 35.7058 6.08784 0.016834 -0.326609 0.0867272 0.451046 0.124073 2.15801 
358 7.02548 29.5776 6.16376 0.0664612 -0.317092 -0.255301 -0.180761 -0.510521 1.49864 
379 7.03232 34.4866 6.09171 -0.350173 -0.176593 0.0376675 2.06761 -0.256246 0.365048 
787 11.2786 41.8905 6.02688 -0.524648 -0.0323105 0.0527907 -0.562449 -0.0226191 -0.391314 
380 8.44413 34.5157 6.09768 -0.104737 -0.279349 -0.062976 -0.211778 -0.767619 1.63982 
373 8.43717 32.0598 6.08042 -0.168341 -0.0406352 0.164767 -0.683402 1.45326 0.596004 
231 14.8147 33.3986 6.03829 -0.204956 -0.576861 0.130647 0.17496 -0.5659 1.03909 
224 17.6487 28.5529 6.07707 -0.00892642 -0.36827 0.0169475 0.269432 -1.23837 1.17648 
249 11.2727 36.9927 6.08973 0.179109 -0.129111 -0.0569366 -0.5394 -0.188477 1.54295 
374 9.14142 30.8369 6.09789 0.0250865 0.0661473 -0.00876814 -0.233297 0.0529378 -0.821854 
250 13.3931 35.7948 6.04722 0.0867964 0.218925 0.139675 0.217775 1.81251 0.235328 
261 10.5653 40.661 6.04104 -0.230399 0.251274 -0.0883411 0.935401 -0.918305 0.438404 
221 11.2839 32.1014 6.04465 -0.722761 -0.264157 0.113759 0.424589 2.16428 -0.350441 
225 19.7697 27.3715 6.05877 0.289786 0.146766 -0.0838012 0.25024 -1.70785 0.56531 
214 19.0717 26.1433 6.01579 -0.313727 0.175535 0.118768 -1.01674 0.351195 1.14575 
366 17.6591 26.1039 6.03358 -0.152821 0.593359 -0.00828473 0.320847 0.578893 -0.625934 
213 16.9444 27.3245 6.0783 -0.140045 -0.158215 -0.182619 0.145317 -1.20436 -2.15337 
230 12.6793 34.5763 6.04161 0.220023 -0.244422 0.0525127 -0.93425 -1.42744 0.583436 
245 12.6877 37.0104 6.09192 -0.422999 0.1349 -0.0297253 -2.6107 -1.11919 -2.52092 
347 14.8049 26.0656 6.05091 0.0797023 -0.117305 0.0925836 -1.29614 -0.151483 -0.649578 
266 11.2637 39.4363 6.0406 0.191904 -0.118662 0.217161 -0.108896 0.748257 -0.674693 
251 15.5204 34.617 6.07929 0.300707 0.494277 -0.18124 -0.542279 -0.944032 -0.295934 
246 14.8042 35.8415 6.06306 0.209279 -0.594247 0.0910964 0.478768 -0.743821 -0.150497 
247 16.9407 34.6537 6.07792 -0.161159 -0.368102 -0.00155307 0.102106 -0.488234 1.86176 
782 10.5659 43.1156 6.05602 0.55196 0.129104 -0.129514 0.2218 1.15943 -0.548869 
799 9.16085 43.1112 6.05356 -0.457778 -0.463577 0.0469519 0.599912 1.32326 -0.677201 
269 17.6536 35.8764 6.09484 -0.0940628 -0.551334 0.0284423 2.37215 1.69737 2.28193 
788 13.3932 40.6794 6.06091 0.00753569 0.557855 0.0316113 0.793308 -1.71404 0.540694 
875 19.0686 40.7734 6.1071 -0.306434 -0.588985 -0.00947036 0.0905862 -1.15278 -0.304486 
879 17.6497 40.7441 6.10984 0.139408 -0.0389728 0.0144224 -0.51106 -0.381347 -0.250059 
896 19.7854 41.9792 6.08042 -0.227668 0.555746 -0.0657202 -1.17601 -1.18713 -1.12505 
783 12.6845 41.9084 6.03408 0.427031 -0.0331784 0.126972 -1.43896 -0.554439 -0.25508 
267 13.3849 38.2362 6.10229 0.370761 0.343399 -0.0525907 0.566349 0.670511 -1.1938 
244 10.5561 38.203 6.06431 0.0419399 0.450029 -0.0224501 -1.00829 0.879228 -0.109195 
785 16.9327 39.5244 6.12937 0.12109 -0.125452 -0.219993 -0.358574 0.0348353 -0.356238 
262 12.6811 39.4614 6.10095 -0.252301 -0.243066 -0.21529 -0.503377 -0.176309 0.664535 
878 15.5169 41.9382 6.06351 0.0550577 0.387712 0.105359 0.864244 0.633233 1.73964 
365 15.5255 27.286 6.05545 -0.178782 0.141416 -0.00408172 1.2843 -0.445951 -0.596097 
220 19.0623 28.5942 6.06007 -0.00124183 -0.4717 0.119092 -0.886278 -0.566789 -2.15951 
337 6.32543 28.3376 6.13315 -0.060434 0.200583 0.00245567 0.996426 -1.11887 -1.75459 
350 13.391 26.0187 6.06835 0.193067 0.603845 0.0414941 0.581186 -1.06932 -0.163574 