ITEM: TIMESTEP
5200
ITEM: NUMBER OF ATOMS
4798
ITEM: BOX BOUNDS ff ff ff
-10.3577 110.358
-10.0998 131.9
-100.402 112.598
ITEM: ATOMS id x y z fx fy fz vx vy vz 
72 -0.062301 2.4752 6.09765 0 0 0 0 0 0 
110 4.19854 7.39519 6.09765 0 0 0 0 0 0 
109 2.77826 7.39519 6.09765 0 0 0 0 0 0 
93 4.19854 4.9352 6.09765 0 0 0 0 0 0 
92 2.77826 4.9352 6.09765 0 0 0 0 0 0 
91 2.06812 6.16519 6.09765 0 0 0 0 0 0 
87 0.647839 6.16519 6.09765 0 0 0 0 0 0 
86 -0.062301 7.39519 6.09765 0 0 0 0 0 0 
81 4.19854 2.4752 6.09765 0 0 0 0 0 0 
80 2.77826 2.4752 6.09765 0 0 0 0 0 0 
79 2.06812 3.7052 6.09765 0 0 0 0 0 0 
78 0.647839 3.7052 6.09765 0 0 0 0 0 0 
77 -0.062301 4.9352 6.09765 0 0 0 0 0 0 
76 4.19854 0.015197 6.09765 0 0 0 0 0 0 
75 2.77826 0.015197 6.09765 0 0 0 0 0 0 
74 2.06812 1.2452 6.09765 0 0 0 0 0 0 
73 0.647839 1.2452 6.09765 0 0 0 0 0 0 
6 -0.062301 12.3152 6.09765 0 0 0 0 0 0 
131 4.19854 12.3152 6.09765 0 0 0 0 0 0 
130 2.77826 12.3152 6.09765 0 0 0 0 0 0 
124 4.19854 9.85519 6.09765 0 0 0 0 0 0 
123 2.77826 9.85519 6.09765 0 0 0 0 0 0 
122 2.06812 11.0852 6.09765 0 0 0 0 0 0 
117 0.647839 11.0852 6.09765 0 0 0 0 0 0 
108 2.06812 8.62519 6.09765 0 0 0 0 0 0 
100 0.647839 8.62519 6.09765 0 0 0 0 0 0 
99 -0.062301 9.85519 6.09765 0 0 0 0 0 0 
34 4.19854 14.7752 6.09765 0 0 0 0 0 0 
33 2.77826 14.7752 6.09765 0 0 0 0 0 0 
32 2.06812 16.0052 6.09765 0 0 0 0 0 0 
31 0.647839 16.0052 6.09765 0 0 0 0 0 0 
19 2.06812 13.5452 6.09765 0 0 0 0 0 0 
18 0.647839 13.5452 6.09765 0 0 0 0 0 0 
17 -0.062301 14.7752 6.09765 0 0 0 0 0 0 
300 4.19854 24.6152 6.09765 0 0 0 0 0 0 
299 2.77826 24.6152 6.09765 0 0 0 0 0 0 
204 4.19854 22.1552 6.09765 0 0 0 0 0 0 
203 2.77826 22.1552 6.09765 0 0 0 0 0 0 
202 2.06812 23.3852 6.09765 0 0 0 0 0 0 
191 0.647839 23.3852 6.09765 0 0 0 0 0 0 
190 -0.062301 24.6152 6.09765 0 0 0 0 0 0 
71 2.06812 20.9252 6.09765 0 0 0 0 0 0 
70 0.647839 20.9252 6.09765 0 0 0 0 0 0 
69 -0.062301 22.1552 6.09765 0 0 0 0 0 0 
63 4.19854 19.6952 6.09765 0 0 0 0 0 0 
62 2.77826 19.6952 6.09765 0 0 0 0 0 0 
49 4.19854 17.2352 6.09765 0 0 0 0 0 0 
48 2.77826 17.2352 6.09765 0 0 0 0 0 0 
47 2.06812 18.4652 6.09765 0 0 0 0 0 0 
46 0.647839 18.4652 6.09765 0 0 0 0 0 0 
45 -0.062301 19.6952 6.09765 0 0 0 0 0 0 
30 -0.062301 17.2352 6.09765 0 0 0 0 0 0 
355 4.19854 31.9952 6.09765 0 0 0 0 0 0 
354 2.77826 31.9952 6.09765 0 0 0 0 0 0 
353 2.06812 33.2252 6.09765 0 0 0 0 0 0 
344 0.647839 33.2252 6.09765 0 0 0 0 0 0 
335 4.19854 29.5352 6.09765 0 0 0 0 0 0 
334 2.77826 29.5352 6.09765 0 0 0 0 0 0 
333 2.06812 30.7652 6.09765 0 0 0 0 0 0 
326 0.647839 30.7652 6.09765 0 0 0 0 0 0 
325 -0.062301 31.9952 6.09765 0 0 0 0 0 0 
315 4.19854 27.0752 6.09765 0 0 0 0 0 0 
314 2.77826 27.0752 6.09765 0 0 0 0 0 0 
313 2.06812 28.3052 6.09765 0 0 0 0 0 0 
308 0.647839 28.3052 6.09765 0 0 0 0 0 0 
307 -0.062301 29.5352 6.09765 0 0 0 0 0 0 
298 2.06812 25.8452 6.09765 0 0 0 0 0 0 
297 0.647839 25.8452 6.09765 0 0 0 0 0 0 
296 -0.062301 27.0752 6.09765 0 0 0 0 0 0 
215 -0.062301 36.9152 6.09765 0 0 0 0 0 0 
376 4.19854 36.9152 6.09765 0 0 0 0 0 0 
375 2.77826 36.9152 6.09765 0 0 0 0 0 0 
369 4.19854 34.4552 6.09765 0 0 0 0 0 0 
368 2.77826 34.4552 6.09765 0 0 0 0 0 0 
367 2.06812 35.6852 6.09765 0 0 0 0 0 0 
362 0.647839 35.6852 6.09765 0 0 0 0 0 0 
343 -0.062301 34.4552 6.09765 0 0 0 0 0 0 
258 4.19854 41.8352 6.09765 0 0 0 0 0 0 
257 2.77826 41.8352 6.09765 0 0 0 0 0 0 
256 2.06812 43.0652 6.09765 0 0 0 0 0 0 
255 0.647839 43.0652 6.09765 0 0 0 0 0 0 
243 4.19854 39.3752 6.09765 0 0 0 0 0 0 
242 2.77826 39.3752 6.09765 0 0 0 0 0 0 
241 2.06812 40.6052 6.09765 0 0 0 0 0 0 
240 0.647839 40.6052 6.09765 0 0 0 0 0 0 
239 -0.062301 41.8352 6.09765 0 0 0 0 0 0 
228 2.06812 38.1452 6.09765 0 0 0 0 0 0 
227 0.647839 38.1452 6.09765 0 0 0 0 0 0 
226 -0.062301 39.3752 6.09765 0 0 0 0 0 0 
254 -0.062301 44.2952 6.09765 0 0 0 0 0 0 
905 4.19854 51.6752 6.09765 0 0 0 0 0 0 
904 2.77826 51.6752 6.09765 0 0 0 0 0 0 
890 4.19854 49.2152 6.09765 0 0 0 0 0 0 
889 2.77826 49.2152 6.09765 0 0 0 0 0 0 
888 2.06812 50.4452 6.09765 0 0 0 0 0 0 
887 0.647839 50.4452 6.09765 0 0 0 0 0 0 
886 -0.062301 51.6752 6.09765 0 0 0 0 0 0 
794 4.19854 46.7552 6.09765 0 0 0 0 0 0 
793 2.77826 46.7552 6.09765 0 0 0 0 0 0 
792 2.06812 47.9852 6.09765 0 0 0 0 0 0 
781 0.647839 47.9852 6.09765 0 0 0 0 0 0 
780 -0.062301 49.2152 6.09765 0 0 0 0 0 0 
280 2.06812 45.5252 6.09765 0 0 0 0 0 0 
279 0.647839 45.5252 6.09765 0 0 0 0 0 0 
278 -0.062301 46.7552 6.09765 0 0 0 0 0 0 
272 4.19854 44.2952 6.09765 0 0 0 0 0 0 
271 2.77826 44.2952 6.09765 0 0 0 0 0 0 
959 4.19854 59.0552 6.09765 0 0 0 0 0 0 
958 2.77826 59.0552 6.09765 0 0 0 0 0 0 
957 2.06812 60.2852 6.09765 0 0 0 0 0 0 
952 0.647839 60.2852 6.09765 0 0 0 0 0 0 
945 4.19854 56.5952 6.09765 0 0 0 0 0 0 
944 2.77826 56.5952 6.09765 0 0 0 0 0 0 
943 2.06812 57.8252 6.09765 0 0 0 0 0 0 
934 0.647839 57.8252 6.09765 0 0 0 0 0 0 
933 -0.062301 59.0552 6.09765 0 0 0 0 0 0 
925 4.19854 54.1352 6.09765 0 0 0 0 0 0 
924 2.77826 54.1352 6.09765 0 0 0 0 0 0 
923 2.06812 55.3652 6.09765 0 0 0 0 0 0 
916 0.647839 55.3652 6.09765 0 0 0 0 0 0 
915 -0.062301 56.5952 6.09765 0 0 0 0 0 0 
903 2.06812 52.9052 6.09765 0 0 0 0 0 0 
898 0.647839 52.9052 6.09765 0 0 0 0 0 0 
897 -0.062301 54.1352 6.09765 0 0 0 0 0 0 
805 -0.062301 61.5152 6.09765 0 0 0 0 0 0 
966 4.19854 61.5152 6.09765 0 0 0 0 0 0 
965 2.77826 61.5152 6.09765 0 0 0 0 0 0 
862 4.19854 68.8952 6.09765 0 0 0 0 0 0 
861 2.77826 68.8952 6.09765 0 0 0 0 0 0 
848 4.19854 66.4352 6.09765 0 0 0 0 0 0 
847 2.77826 66.4352 6.09765 0 0 0 0 0 0 
846 2.06812 67.6652 6.09765 0 0 0 0 0 0 
845 0.647839 67.6652 6.09765 0 0 0 0 0 0 
844 -0.062301 68.8952 6.09765 0 0 0 0 0 0 
833 4.19854 63.9752 6.09765 0 0 0 0 0 0 
832 2.77826 63.9752 6.09765 0 0 0 0 0 0 
831 2.06812 65.2052 6.09765 0 0 0 0 0 0 
830 0.647839 65.2052 6.09765 0 0 0 0 0 0 
829 -0.062301 66.4352 6.09765 0 0 0 0 0 0 
818 2.06812 62.7452 6.09765 0 0 0 0 0 0 
817 0.647839 62.7452 6.09765 0 0 0 0 0 0 
816 -0.062301 63.9752 6.09765 0 0 0 0 0 0 
1828 4.19854 76.2752 6.09765 0 0 0 0 0 0 
1827 2.77826 76.2752 6.09765 0 0 0 0 0 0 
1826 2.06812 77.5052 6.09765 0 0 0 0 0 0 
1821 0.647839 77.5052 6.09765 0 0 0 0 0 0 
1813 4.19854 73.8152 6.09765 0 0 0 0 0 0 
1812 2.77826 73.8152 6.09765 0 0 0 0 0 0 
1811 2.06812 75.0452 6.09765 0 0 0 0 0 0 
1810 0.647839 75.0452 6.09765 0 0 0 0 0 0 
1809 -0.062301 76.2752 6.09765 0 0 0 0 0 0 
1717 4.19854 71.3552 6.09765 0 0 0 0 0 0 
1716 2.77826 71.3552 6.09765 0 0 0 0 0 0 
1715 2.06812 72.5852 6.09765 0 0 0 0 0 0 
1704 0.647839 72.5852 6.09765 0 0 0 0 0 0 
1703 -0.062301 73.8152 6.09765 0 0 0 0 0 0 
870 2.06812 70.1252 6.09765 0 0 0 0 0 0 
869 0.647839 70.1252 6.09765 0 0 0 0 0 0 
868 -0.062301 71.3552 6.09765 0 0 0 0 0 0 
1728 -0.062301 86.1152 6.09765 0 0 0 0 0 0 
1889 4.19854 86.1152 6.09765 0 0 0 0 0 0 
1888 2.77826 86.1152 6.09765 0 0 0 0 0 0 
1882 4.19854 83.6552 6.09765 0 0 0 0 0 0 
1881 2.77826 83.6552 6.09765 0 0 0 0 0 0 
1880 2.06812 84.8852 6.09765 0 0 0 0 0 0 
1875 0.647839 84.8852 6.09765 0 0 0 0 0 0 
1868 4.19854 81.1952 6.09765 0 0 0 0 0 0 
1867 2.77826 81.1952 6.09765 0 0 0 0 0 0 
1866 2.06812 82.4252 6.09765 0 0 0 0 0 0 
1857 0.647839 82.4252 6.09765 0 0 0 0 0 0 
1856 -0.062301 83.6552 6.09765 0 0 0 0 0 0 
1848 4.19854 78.7352 6.09765 0 0 0 0 0 0 
1847 2.77826 78.7352 6.09765 0 0 0 0 0 0 
1846 2.06812 79.9652 6.09765 0 0 0 0 0 0 
1839 0.647839 79.9652 6.09765 0 0 0 0 0 0 
1838 -0.062301 81.1952 6.09765 0 0 0 0 0 0 
1820 -0.062301 78.7352 6.09765 0 0 0 0 0 0 
1741 2.06812 87.3452 6.09765 0 0 0 0 0 0 
1740 0.647839 87.3452 6.09765 0 0 0 0 0 0 
2677 4.19854 95.9552 6.09765 0 0 0 0 0 0 
2676 2.77826 95.9552 6.09765 0 0 0 0 0 0 
1793 2.06812 94.7252 6.09765 0 0 0 0 0 0 
1792 0.647839 94.7252 6.09765 0 0 0 0 0 0 
1791 -0.062301 95.9552 6.09765 0 0 0 0 0 0 
1785 4.19854 93.4952 6.09765 0 0 0 0 0 0 
1784 2.77826 93.4952 6.09765 0 0 0 0 0 0 
1771 4.19854 91.0352 6.09765 0 0 0 0 0 0 
1770 2.77826 91.0352 6.09765 0 0 0 0 0 0 
1769 2.06812 92.2652 6.09765 0 0 0 0 0 0 
1768 0.647839 92.2652 6.09765 0 0 0 0 0 0 
1767 -0.062301 93.4952 6.09765 0 0 0 0 0 0 
1756 4.19854 88.5752 6.09765 0 0 0 0 0 0 
1755 2.77826 88.5752 6.09765 0 0 0 0 0 0 
1754 2.06812 89.8052 6.09765 0 0 0 0 0 0 
1753 0.647839 89.8052 6.09765 0 0 0 0 0 0 
1752 -0.062301 91.0352 6.09765 0 0 0 0 0 0 
1739 -0.062301 88.5752 6.09765 0 0 0 0 0 0 
2663 -0.062301 98.4152 6.09765 0 0 0 0 0 0 
2808 4.19854 103.335 6.09765 0 0 0 0 0 0 
2807 2.77826 103.335 6.09765 0 0 0 0 0 0 
2806 2.06812 104.565 6.09765 0 0 0 0 0 0 
2799 0.647839 104.565 6.09765 0 0 0 0 0 0 
2788 4.19854 100.875 6.09765 0 0 0 0 0 0 
2787 2.77826 100.875 6.09765 0 0 0 0 0 0 
2786 2.06812 102.105 6.09765 0 0 0 0 0 0 
2781 0.647839 102.105 6.09765 0 0 0 0 0 0 
2780 -0.062301 103.335 6.09765 0 0 0 0 0 0 
2773 4.19854 98.4152 6.09765 0 0 0 0 0 0 
2772 2.77826 98.4152 6.09765 0 0 0 0 0 0 
2771 2.06812 99.6452 6.09765 0 0 0 0 0 0 
2770 0.647839 99.6452 6.09765 0 0 0 0 0 0 
2769 -0.062301 100.875 6.09765 0 0 0 0 0 0 
2675 2.06812 97.1852 6.09765 0 0 0 0 0 0 
2664 0.647839 97.1852 6.09765 0 0 0 0 0 0 
2849 4.19854 110.715 6.09765 0 0 0 0 0 0 
2848 2.77826 110.715 6.09765 0 0 0 0 0 0 
2842 4.19854 108.255 6.09765 0 0 0 0 0 0 
2841 2.77826 108.255 6.09765 0 0 0 0 0 0 
2840 2.06812 109.485 6.09765 0 0 0 0 0 0 
2835 0.647839 109.485 6.09765 0 0 0 0 0 0 
2828 4.19854 105.795 6.09765 0 0 0 0 0 0 
2827 2.77826 105.795 6.09765 0 0 0 0 0 0 
2826 2.06812 107.025 6.09765 0 0 0 0 0 0 
2817 0.647839 107.025 6.09765 0 0 0 0 0 0 
2816 -0.062301 108.255 6.09765 0 0 0 0 0 0 
2798 -0.062301 105.795 6.09765 0 0 0 0 0 0 
2716 4.19854 113.175 6.09765 0 0 0 0 0 0 
2715 2.77826 113.175 6.09765 0 0 0 0 0 0 
2701 2.06812 111.945 6.09765 0 0 0 0 0 0 
2700 0.647839 111.945 6.09765 0 0 0 0 0 0 
2699 -0.062301 113.175 6.09765 0 0 0 0 0 0 
2688 -0.062301 110.715 6.09765 0 0 0 0 0 0 
2712 -0.062301 115.635 6.09765 0 0 0 0 0 0 
3636 4.19854 120.555 6.09765 0 0 0 0 0 0 
3635 2.77826 120.555 6.09765 0 0 0 0 0 0 
3634 2.06812 121.785 6.09765 0 0 0 0 0 0 
3623 0.647839 121.785 6.09765 0 0 0 0 0 0 
2753 2.06812 119.325 6.09765 0 0 0 0 0 0 
2752 0.647839 119.325 6.09765 0 0 0 0 0 0 
2751 -0.062301 120.555 6.09765 0 0 0 0 0 0 
2745 4.19854 118.095 6.09765 0 0 0 0 0 0 
2744 2.77826 118.095 6.09765 0 0 0 0 0 0 
2731 4.19854 115.635 6.09765 0 0 0 0 0 0 
2730 2.77826 115.635 6.09765 0 0 0 0 0 0 
2729 2.06812 116.865 6.09765 0 0 0 0 0 0 
2728 0.647839 116.865 6.09765 0 0 0 0 0 0 
2727 -0.062301 118.095 6.09765 0 0 0 0 0 0 
2714 2.06812 114.405 6.09765 0 0 0 0 0 0 
2713 0.647839 114.405 6.09765 0 0 0 0 0 0 
95 6.32676 3.80644 6.09907 0.660146 -0.0652905 0.0972142 -0.0257152 -0.930267 1.33593 
90 11.5172 0.45708 5.96333 0.345949 -0.344555 0.104905 -0.0244082 1.76109 1.16719 
96 7.06756 2.60381 6.10186 0.203876 -0.198972 0.0783934 -0.305201 0.383213 1.68962 
104 17.1676 0.694315 5.5687 -0.147925 0.139627 0.00756377 1.55764 2.45296 -1.88172 
113 7.06426 5.04006 6.13777 -0.365927 -0.431129 -0.19612 -0.245677 -1.71671 -0.412313 
105 11.4073 2.82815 6.04083 0.18044 0.280206 0.0378416 1.25871 1.35808 -0.812247 
112 6.32865 6.23759 6.12444 0.156266 0.470418 -0.120951 -0.785098 0.110819 -0.575952 
128 8.47631 7.56222 6.10522 -0.31173 -0.150126 0.00340726 1.24931 0.797301 1.02842 
88 10.7083 1.59598 6.07263 -0.50737 0.212827 -0.0602628 0.173885 1.53781 0.860957 
127 7.05245 7.47193 6.08452 -0.179205 0.238122 0.235017 -1.65671 -0.181007 1.46974 
118 11.3698 5.25043 6.0757 0.101414 -0.195245 0.00515886 0.146057 1.23879 1.03885 
115 9.22134 3.92556 6.10528 0.663985 0.460592 0.0223979 1.84861 -0.0566219 0.228832 
129 9.2073 6.35573 6.12466 -0.0702553 0.141832 -0.0659385 1.14764 -0.612119 0.654105 
101 10.6573 4.01941 6.0673 -0.321946 0.0313403 0.0701138 0.973888 -0.735593 -0.998415 
114 8.48378 5.12946 6.12593 0.0466283 -0.208321 0.00858238 -0.22233 0.428882 -2.686 
1 10.6245 6.44748 6.11174 0.0713548 -0.44603 -0.0878411 1.22532 1.00595 0.271877 
2 12.7963 5.31958 6.03943 -0.248343 -0.270573 0.0669505 -0.525997 -1.27108 -1.35748 
4 17.1185 3.06103 5.88071 0.0918952 0.311032 0.14648 -1.27779 -0.457418 -0.200938 
5 19.2728 1.93779 5.94953 0.242731 -0.142165 0.112934 -0.587019 0.669921 0.499531 
89 12.8707 0.524893 6.20568 -0.109356 -0.219692 -0.0715817 0.161434 0.951442 0.280519 
121 17.8973 1.88165 5.79212 -0.698817 -0.0659833 -0.0186736 0.862255 -1.97177 -0.86597 
119 13.5535 4.13046 6.0287 -1.00221 -0.0964286 0.105848 0.104363 0.0399666 -1.58966 
11 19.228 4.34834 5.93637 -0.405586 -0.0505191 -0.0205626 -0.692577 1.81553 -1.76836 
14 15.6594 5.41649 6.0262 0.120285 0.240518 0.0257843 0.40554 -0.852332 0.221544 
13 13.4969 6.53898 6.0187 0.317128 0.275324 0.117051 -0.834664 0.36811 2.00921 
15 17.809 4.29468 5.94126 0.23584 -0.241074 -0.0270499 0.611371 0.659071 -0.23929 
3 14.9594 4.19796 6.03168 0.0136924 -0.11775 -0.211171 -1.89033 0.911129 0.895006 
107 15.7987 0.628374 5.73196 0.286486 0.120027 0.0364685 0.0808205 0.0357706 0.302277 
24 19.1957 6.75796 5.99609 -0.139956 -0.154494 -0.0335881 -0.269837 0.208141 -0.704855 
10 17.072 5.48554 6.00142 0.0659974 0.0878219 -0.0546593 0.604756 -1.13787 -0.46695 
9 14.9185 6.61011 6.02952 -0.0795593 0.146379 -0.124208 -0.412078 1.88796 0.6026 
103 14.9948 1.77365 5.90984 -0.199169 -0.0788084 -0.0740386 0.330358 -0.92195 -1.33455 
120 15.689 3.00672 5.94822 0.621791 -0.152014 -0.00920394 -0.188868 -0.000705367 0.299362 
102 12.8393 2.90294 6.03067 0.181498 0.238032 -0.00939255 -2.56581 1.30909 0.745867 
106 13.5979 1.70943 6.02033 0.597098 0.23859 0.0951716 0.701592 0.0951908 -0.725943 
28 17.7837 6.70875 6.0055 -0.305229 -0.280205 -0.0341397 -0.895634 0.191647 -0.225384 
94 4.90868 3.7052 6.09765 0 0 0 0 0 0 
111 4.90868 6.16519 6.09765 0 0 0 0 0 0 
82 4.90868 1.2452 6.09765 0 0 0 0 0 0 
98 9.30733 1.51106 6.16162 0.180457 -0.00358891 -0.000300654 0.579155 -0.131775 -1.65078 
84 7.20005 0.231358 6.1544 0.438292 -0.408535 -0.0055873 -0.449938 0.439584 -1.48926 
83 6.34145 1.34769 6.12569 0.0347318 0.55933 -0.0610481 -0.82164 1.95701 -0.534305 
85 8.5767 0.309964 6.31081 -0.511398 0.222617 -0.102752 1.41097 -1.52422 -0.0968782 
97 8.52399 2.69091 6.1282 -0.466755 0.110782 -0.0547339 -0.664896 2.31959 -1.29754 
51 6.31961 16.0656 6.14074 0.227396 -0.172005 -0.0676641 -0.0936616 0.224717 -0.0584818 
25 11.3332 10.0931 6.11422 -0.650934 -0.122155 -0.0224192 -1.27681 -0.98257 -0.0789746 
136 9.19049 8.79293 6.10665 -0.00665088 0.0380538 0.00444608 -1.01611 -1.44764 0.418947 
144 9.16173 13.6788 6.16736 0.330649 0.0864931 -0.16816 -0.452804 0.720792 0.136454 
12 11.3329 7.67036 6.07517 0.607433 0.00239943 0.135415 0.461997 0.348784 -0.216313 
7 10.6037 8.87 6.11629 0.336541 0.147173 -0.104174 -2.28834 2.04499 0.525331 
36 12.7248 12.5843 6.11195 -0.271241 -0.239793 0.0293799 -1.02831 -0.633427 -1.02803 
140 8.45684 12.4399 6.12431 -0.027013 0.489163 -0.059559 -0.965975 0.881815 -0.114179 
35 10.5856 13.7422 6.15401 0.0102711 -0.0632426 0.0313989 1.10456 -0.711662 2.16258 
198 13.4183 16.2585 6.13358 -0.241474 0.108702 0.089025 -1.04946 0.769461 2.64412 
60 17.7028 11.5408 6.05677 0.472182 0.407079 0.126251 0.482591 -0.983542 0.869263 
59 15.5615 12.6904 6.10936 0.349103 -0.0320925 -0.113361 0.143239 1.0611 0.251345 
58 13.4235 13.81 6.1108 0.445352 0.665072 -0.0428133 -2.84107 0.937902 0.508763 
53 12.7109 15.024 6.12183 0.0705562 0.224372 0.148639 0.431777 2.44472 0.749232 
195 16.9761 15.1776 6.12722 -0.0293074 -0.457913 -0.0174567 0.778113 -1.69672 -0.451374 
43 17.7507 9.12321 6.03492 -0.334911 0.0137567 -0.123975 -0.0487502 0.285859 0.564685 
42 15.5963 10.2546 6.03766 -0.145317 0.10275 0.128131 0.0394375 0.914164 0.773064 
196 19.1133 14.007 6.09289 0.290835 0.0768082 0.082245 0.026647 0.0992965 -0.168115 
39 19.1621 9.17161 6.03079 0.0256982 0.219074 -0.0530961 0.781776 0.861247 -0.167356 
285 19.0991 16.4354 6.12405 0.148897 -0.435611 -0.00907349 -1.88009 0.452397 -1.77777 
26 13.4817 8.95815 6.04585 -0.402745 -0.00846218 0.0887921 -0.748859 1.64828 -0.582086 
22 14.8931 9.02673 6.03211 -0.0201034 0.298561 -0.0820108 -1.75666 -0.0970882 0.765492 
23 17.0428 7.90184 6.00351 0.112709 0.0380836 0.104015 -1.72374 0.0113605 -1.07959 
27 15.6286 7.83575 6.00511 -0.042437 -0.332858 0.0797138 0.629559 0.00210022 -2.12674 
289 17.6889 16.3906 6.14287 -0.232928 0.27871 -0.0660103 -0.890368 -1.01863 0.893072 
57 11.3063 14.9776 6.17567 -0.701182 -0.412735 -0.159187 -1.15901 0.285495 1.52145 
41 13.4486 11.3746 6.11605 0.0394927 0.744882 -0.00270231 -1.13818 -0.230861 -0.635321 
199 15.5593 15.117 6.12845 -0.124013 0.194909 -0.0381715 -0.12402 0.854988 -0.495508 
21 12.7453 10.1577 6.10772 -0.0558539 -0.279744 -0.0487986 2.59721 0.336905 0.749069 
37 14.857 11.456 6.09933 0.366332 -0.122884 -0.0228203 0.066196 0.269253 0.474142 
54 14.8373 13.8996 6.09011 0.0917105 -0.600419 0.204123 -0.505211 -1.2555 0.426778 
200 17.707 13.9703 6.11635 -0.633817 -0.128018 -0.024447 -0.505417 0.733194 0.111655 
55 16.9833 12.7524 6.1063 -0.193603 -0.244713 -0.0391333 0.0320626 1.10987 0.0280755 
40 11.3102 12.5239 6.1229 -0.139498 0.360811 -0.0366242 -1.12221 -0.356708 -0.382827 
141 9.17948 11.2394 6.06722 0.111031 -0.587949 0.303725 0.354609 0.752388 2.16991 
20 10.5969 11.2979 6.09708 0.12833 0.0225384 0.0378271 1.20505 0.350003 -0.307289 
126 6.31854 8.68512 6.10255 0.682 0.176434 -0.0426576 -0.342485 0.379886 0.441474 
135 8.46633 10.001 6.10584 -0.310915 0.0485199 -0.166139 1.68095 0.0856583 -1.64466 
134 7.04067 9.92362 6.09211 0.12129 0.126706 0.0917327 -1.01667 1.75707 -1.6796 
133 6.32309 11.1449 6.11091 0.211109 -0.0301212 -0.0793345 0.118137 0.698514 -0.168879 
8 12.7632 7.73576 6.04908 -0.396283 0.165707 -0.0428944 0.396779 0.0870347 0.951522 
303 19.1003 18.8521 6.12665 -0.064114 -0.0833108 -0.00167668 0.951794 0.395329 0.945649 
66 7.04088 17.2952 6.15646 -0.622316 0.0706926 -0.146112 -0.653302 0.79625 0.0399448 
293 7.02617 22.2069 6.10751 0.289311 0.119304 -0.169193 1.09689 -1.75004 0.665814 
206 6.32591 20.9815 6.07638 -0.492005 -0.568844 0.179288 -0.690785 0.0480239 0.580021 
318 7.03092 24.6509 6.11471 -0.108624 0.458921 -0.0972952 1.57473 -0.791103 0.562005 
330 11.2887 24.7562 6.12429 -0.481952 -0.599707 -0.126655 -0.700224 -1.20356 0.527525 
288 15.5442 17.5453 6.17846 -0.261271 0.0806528 -0.0227719 -1.2684 -0.691265 1.83693 
284 16.9556 17.5952 6.15287 0.515049 0.0718224 0.0277071 -1.14331 -0.034957 0.745097 
292 6.31695 23.4279 6.08842 0.208358 -0.155665 0.0912088 0.228568 -0.828463 1.07356 
306 19.8237 17.6369 6.1293 -0.318288 0.597196 0.0666618 -1.0121 0.307596 0.340547 
137 4.90868 13.5452 6.09765 0 0 0 0 0 0 
132 4.90868 11.0852 6.09765 0 0 0 0 0 0 
125 4.90868 8.62519 6.09765 0 0 0 0 0 0 
50 4.90868 16.0052 6.09765 0 0 0 0 0 0 
56 19.1225 11.589 6.06832 -0.129094 0.193433 -0.01305 0.364485 0.52897 0.840958 
138 6.32289 13.6018 6.12112 0.225684 0.0380188 -0.00150889 0.577391 0.818528 -0.0953271 
194 14.8279 16.3254 6.1611 0.316027 -0.319193 -0.125887 1.57038 0.678162 -0.851894 
38 17.0075 10.3207 6.04365 0.028844 -0.311024 -0.0473486 0.754033 -0.203069 1.07016 
52 10.5814 16.186 6.16474 -0.290751 -0.162282 -0.00232992 -0.00643123 -1.76081 0.295006 
139 7.0433 12.3814 6.11033 -0.350569 -0.0419767 0.0472309 0.876307 -0.741457 -0.222204 
68 9.16338 16.1316 6.15636 0.194666 -0.216088 0.105458 -0.131231 0.116475 -0.073894 
142 7.03244 14.8449 6.14642 0.0682899 -0.154735 -0.0343664 -0.996777 -1.27952 1.16788 
143 8.45201 14.9003 6.16196 -0.255924 -0.149815 -0.0138959 1.28113 0.00192582 1.10349 
305 17.6808 18.816 6.14958 0.0824344 -0.581246 -0.0614839 -0.197643 1.97322 0.404416 
197 11.2785 17.4126 6.16897 0.37551 0.29605 -0.16111 0.485476 -1.43768 -2.06945 
193 12.6913 17.4742 6.14258 0.234099 -0.173013 0.0643286 0.0225885 -1.24917 0.976405 
361 19.7904 24.9354 6.07955 -0.181821 0.257673 -0.232393 0.21742 -0.659493 -0.247885 
319 8.44338 24.6909 6.10437 -0.400241 0.143386 0.13103 -0.560705 -0.717964 -2.16976 
320 9.13759 23.4753 6.11283 0.943963 -0.216525 -0.0385764 0.841612 -1.67693 -1.48983 
309 10.5642 23.5225 6.1068 -0.0686553 -0.0120601 0.0712671 1.6638 0.484083 0.0189405 
342 19.8065 22.5146 6.05174 -0.108963 -0.55562 0.128248 0.259431 -1.17575 -0.84134 
322 19.091 21.2881 6.1248 -0.013977 0.20024 -0.258761 -0.111231 0.130551 1.08085 
328 12.6982 24.7991 6.08614 -0.175909 -0.0369622 -0.0531448 0.829275 0.478979 1.38649 
302 16.9614 20.0145 6.1348 -0.234433 0.660535 0.0548549 -0.0261214 -1.24337 -1.79651 
192 10.5649 18.6239 6.11645 0.302206 0.138351 0.212615 -0.0060257 0.0287638 -2.06374 
310 12.6911 22.355 6.07961 0.040427 -0.0993117 0.0736328 -0.421151 0.721722 -0.771095 
312 13.4081 21.1382 6.09576 -0.263128 0.161753 0.112385 -0.820751 -0.00157168 -2.19227 
321 16.9608 22.4521 6.11333 -0.196755 0.107989 -0.167329 -1.47424 -0.931162 -1.06666 
283 14.8144 18.7536 6.17563 0.710136 0.265989 -0.0731478 -0.553394 0.650319 0.133135 
323 17.6729 21.2425 6.11513 0.295041 -0.188147 0.129913 0.814771 0.755311 0.284144 
329 14.8257 23.6195 6.05569 -0.032554 -0.0319806 0.061626 0.649212 -0.650523 -0.49127 
331 13.4043 23.5839 6.06836 0.354083 -0.294149 -0.0026678 0.539649 0.123914 -1.03161 
332 15.5454 22.4013 6.09237 -0.115165 0.626879 0.00747364 0.481785 -0.787948 0.166397 
348 16.9462 24.8846 6.03784 0.221272 -0.214361 -0.0924864 -0.875165 -1.03801 -1.61549 
351 15.5366 24.8489 6.02904 -0.352926 -0.15245 0.0173422 0.877064 -0.0175787 -0.158445 
352 17.6752 23.6746 6.04701 -0.55778 0.0179186 0.0586907 -0.331012 -0.329226 -0.526125 
287 13.4062 18.7071 6.15957 -0.309752 -0.429359 -0.0556187 -0.0510146 0.272759 0.717383 
286 11.2633 19.8612 6.12328 0.593968 -0.117994 -0.0209558 -2.56588 -0.433146 0.580905 
304 15.5431 19.9823 6.14938 -0.29966 -0.408795 0.058102 0.145787 0.200186 1.03539 
311 11.2777 22.3001 6.1172 -0.0270688 0.320943 -0.170892 -1.13316 -0.68568 0.578566 
282 12.6851 19.9155 6.11894 -0.0412042 0.0502452 0.026053 1.51162 0.729706 -0.679188 
301 14.8184 21.1941 6.13267 0.288833 -0.471836 -0.148502 -2.14446 -2.31262 -0.347468 
64 4.90868 18.4652 6.09765 0 0 0 0 0 0 
291 4.90868 23.3852 6.09765 0 0 0 0 0 0 
205 4.90868 20.9252 6.09765 0 0 0 0 0 0 
341 19.0821 23.7167 6.02396 0.109544 0.134343 0.261275 2.19191 0.516526 0.0228576 
324 19.8073 20.0783 6.10818 0.435799 -0.162494 -0.0327689 -1.8877 1.43256 -0.924126 
295 9.15239 21.0281 6.12483 -0.153966 -0.418213 -0.121933 -1.56433 -0.300628 -1.00269 
67 8.44826 17.343 6.16284 0.200013 0.212451 -0.107817 -0.454872 -0.209183 -1.00338 
209 9.16392 18.5713 6.13172 -0.769109 0.0457867 -0.0305966 -2.62404 -0.430206 -0.62202 
208 8.44426 19.7871 6.10494 -0.182749 0.274837 0.0389343 -0.123501 1.73139 -1.66035 
294 8.4437 22.2372 6.10462 -0.403396 0.490357 0.0523716 -0.589531 0.174663 0.0339159 
65 6.31577 18.5129 6.11953 0.447728 0.0158773 -0.0668899 -1.14823 -0.721386 -0.321521 
281 10.5611 21.0791 6.10941 -0.0615076 -0.179151 0.093648 0.221544 1.29774 -0.456429 
207 7.01653 19.7512 6.08882 0.735299 -0.0233445 0.0450366 -1.2865 0.967799 -0.429013 
338 7.02972 27.1156 6.10494 0.0608055 -0.161015 0.0101944 -2.52239 2.00561 0.256788 
237 17.6564 30.9719 6.04725 -0.178614 0.275172 0.0410666 0.844018 -0.340882 -0.979935 
232 16.9407 32.1879 6.05905 0.264954 0.246775 -0.140486 0.644633 0.283638 -0.251165 
363 11.2786 29.6546 6.09414 -0.293182 -0.284851 0.0573938 -1.97059 0.272297 -1.14464 
210 10.5567 30.8649 6.06516 0.345431 0.0939964 0.163389 1.43312 -0.0109998 0.485489 
317 6.32386 25.8803 6.11732 0.0378441 -0.121318 -0.0535581 0.148957 -0.77503 0.725413 
360 9.15724 28.3861 6.08725 -0.201664 -0.216064 0.141382 1.53461 0.688722 -0.923816 
349 11.2793 27.1938 6.12907 -0.178732 0.127108 -0.0758185 -0.664838 1.09122 -0.440842 
340 9.14376 25.9194 6.13454 0.509125 0.276774 -0.118763 -0.702278 -0.641538 0.563639 
248 19.0701 33.4445 6.03003 0.349955 0.26067 0.0472186 -2.18259 -0.288796 0.358835 
252 17.6603 33.4136 6.03881 -0.245331 -0.225889 0.0718718 -0.997013 0.0797653 0.723468 
218 14.8037 30.9519 6.03033 0.142177 -0.381629 0.242067 -0.294137 1.55946 -0.929358 
253 19.7896 32.2354 6.0346 -0.0315195 -0.392702 -0.050267 1.42201 0.269529 0.79642 
345 10.5765 28.422 6.10347 -0.36153 -0.168577 -0.0292858 -0.391622 -0.940782 0.716933 
219 16.9291 29.761 6.07247 -0.0944524 -0.00533696 -0.133608 0.0677356 -0.659788 1.00155 
212 14.8113 28.5051 6.07796 -0.170675 -0.358074 0.149197 0.148885 -1.12354 0.444852 
223 15.5117 29.7317 6.06381 0.350688 0.103843 -0.0611936 0.699516 -0.78209 -1.91784 
327 10.5644 25.9609 6.12524 -0.0680803 0.457085 0.0650683 0.333069 -0.12003 1.75594 
222 13.3952 30.9063 6.07723 -0.289174 0.229262 -0.013929 0.205153 0.380044 0.389615 
364 13.3949 28.4631 6.12745 0.311893 0.2136 -0.179009 0.972816 0.214905 -1.86581 
381 9.14127 33.2893 6.04827 0.154506 0.0232145 0.0507641 0.486364 1.22081 0.286786 
233 19.0686 31.0098 6.03321 0.232419 0.166678 0.148786 -0.278629 0.464405 -1.2063 
211 12.6847 29.6804 6.11673 0.250099 0.193874 -0.0748398 -1.32696 0.979049 -0.195477 
346 12.6919 27.2399 6.10335 -0.15372 -0.316667 -0.0344723 1.03234 -0.468403 -0.370118 
339 8.4467 27.1484 6.12365 -0.0610248 0.130634 -0.136148 -3.37219 -1.53293 2.82569 
276 8.4338 41.8606 6.11413 0.268844 0.154812 -0.137693 -2.25016 -1.59149 0.151283 
275 7.02175 41.8459 6.08585 -0.147467 0.0425364 0.24532 0.95027 -0.116681 -1.29426 
260 6.3145 40.6119 6.1028 0.402587 0.350184 0.00166602 -0.337175 0.278921 -1.27086 
873 14.8239 43.1525 6.17461 -0.278375 0.196766 -0.194482 -0.550227 -1.14585 1.91945 
383 6.31389 38.159 6.09424 0.37429 0.324941 0.138242 -0.65854 -2.12047 -1.97454 
874 16.9318 41.9479 6.16179 0.508187 -0.028204 -0.0753772 -0.591791 0.0444014 1.79874 
789 15.5258 39.4913 6.11543 0.29525 0.0383886 -0.0272103 0.0618234 -0.33689 0.238732 
263 14.8257 38.266 6.08415 -0.170828 -0.369367 -0.0137953 -1.0932 -0.519427 -0.772904 
265 19.0692 35.874 6.06378 0.274691 0.744859 -0.0674714 0.405624 1.21233 -1.05256 
264 16.9574 37.0714 6.05249 -0.179011 0.358553 0.0436435 1.35348 -0.0962741 1.28552 
268 15.5392 37.0407 6.05927 0.0916696 0.442433 -0.00968058 0.670457 -2.93889 -0.0552021 
791 19.7777 37.1063 6.07271 -0.082951 0.0248104 0.032312 -0.911041 0.808833 -1.30802 
786 19.0793 38.3389 6.08054 0.0360529 -0.511661 -0.0381547 0.951762 1.24581 -0.0193516 
880 19.7943 39.5573 6.07464 -0.338986 -0.332496 -0.0539469 -0.639503 -0.688017 0.209201 
270 19.7865 34.6725 6.04463 -0.0292548 -0.776989 0.0070372 0.737964 -0.304825 -2.02926 
784 14.8117 40.7074 6.14108 0.128507 -0.0877284 -0.0207315 0.950802 -1.6685 0.714034 
790 17.6695 38.3036 6.08602 -0.506114 -0.189761 -0.0490481 1.09308 -1.51806 0.417704 
387 7.02445 39.3917 6.11437 0.201244 -0.24476 -0.0278897 -2.4212 -1.00375 1.2866 
370 4.90868 33.2252 6.09765 0 0 0 0 0 0 
356 4.90868 30.7652 6.09765 0 0 0 0 0 0 
336 4.90868 28.3052 6.09765 0 0 0 0 0 0 
316 4.90868 25.8452 6.09765 0 0 0 0 0 0 
359 8.4346 29.6044 6.08335 0.455251 -0.0737957 -0.108939 -0.841216 -1.21769 -0.197465 
216 10.5544 33.3237 6.03459 0.111124 -0.529575 0.189763 -0.131087 0.64181 -1.33968 
358 7.02447 29.5768 6.06395 0.054763 -0.750151 0.143118 -0.565847 2.2384 0.564464 
373 8.44207 32.059 6.0558 0.000643343 -0.532883 -0.070801 0.0511436 -0.494511 -0.0320373 
372 7.02636 32.0186 6.05424 0.0966741 0.429834 0.0897444 0.760581 -1.83271 1.007 
236 15.5288 32.1643 6.05703 -0.121721 0.13965 -0.135641 0.0245476 1.10786 1.45581 
231 14.8165 33.3843 6.04272 -0.127318 -0.338666 0.0886848 2.57405 0.393019 -0.316286 
235 13.4013 33.3425 6.06303 -0.0269678 0.281702 0.0212066 -0.714717 -1.25889 -1.44301 
224 17.6443 28.5517 6.06512 0.237107 -0.418382 0.0302919 1.06979 1.20234 -0.322187 
217 12.6766 32.1268 6.0796 0.129359 -0.26566 -0.0442856 -1.76037 2.43397 -0.86368 
374 9.15254 30.8281 6.0667 -0.534146 0.34864 0.00378848 0.668293 0.265645 -1.05294 
221 11.2601 32.094 6.08301 0.0775289 0.312281 -0.231175 -1.70566 0.888255 -0.872538 
225 19.7763 27.3761 6.08008 0.244165 -0.360246 0.0394957 1.55071 -1.01564 -0.65105 
214 19.0701 26.1467 6.05917 -0.0352241 0.0616677 -0.00430644 0.0813968 0.697033 -0.580881 
366 17.6539 26.1027 6.02885 0.30271 0.322044 0.149713 -0.794109 -1.11449 1.32605 
213 16.9412 27.3182 6.05707 0.00232333 0.180796 0.00672596 -0.220721 -1.91755 -0.497206 
347 14.81 26.0606 6.04193 0.492157 -0.0351048 0.0277094 -1.15025 -0.00662473 -1.1208 
365 15.528 27.2834 6.07764 -0.267854 0.182619 -0.124455 1.2328 -0.107044 0.372833 
220 19.0632 28.5856 6.08854 -0.263108 0.00279789 -0.0725782 -0.123952 -0.980167 -1.03696 
238 19.7868 29.7965 6.06851 -0.0651457 0.222231 0.061526 -0.16876 1.13404 -0.612211 
371 6.32634 33.2503 6.08211 -0.276376 -0.217013 0.0148333 -0.497424 0.465291 -1.88389 
350 13.4018 26.0223 6.05006 -0.00860474 0.161098 0.226462 -0.142096 -0.618711 1.13351 
337 6.32233 28.3345 6.08289 0.0772394 0.381414 0.0339269 1.81797 0.662604 0.0400461 
357 6.32431 30.7892 6.08063 -0.402877 0.412456 -0.115903 0.999802 -0.652051 -0.960874 
877 13.4039 43.1333 6.1417 -0.0818162 -0.177523 0.0341696 -0.826505 0.236021 0.0673674 
878 15.5211 41.925 6.14769 0.157394 0.304311 0.134133 -1.34521 -1.13296 -0.885013 
262 12.6907 39.4747 6.08758 -0.0897539 -1.14833 0.0797258 -0.173705 0.0970835 0.821779 
785 16.9429 39.5151 6.11453 0.0879262 -0.0727078 0.0347529 1.23179 -0.58431 -2.13001 
244 10.5631 38.1996 6.12568 0.266491 0.198434 -0.113125 1.53211 1.23399 1.81012 
267 13.4066 38.2349 6.06822 -0.333316 0.482706 0.134148 0.377086 0.454765 -0.106871 
783 12.6896 41.9016 6.12085 0.215269 0.265154 0.0174137 -0.761681 0.0239641 -0.554389 
896 19.7856 41.9915 6.11424 0.116362 -0.480135 -0.118401 -0.767706 -1.60156 1.15739 
879 17.6613 40.7336 6.13538 -0.295437 0.189191 -0.114796 0.662862 -0.740701 -1.96327 
875 19.0771 40.7665 6.09244 -0.126932 0.15764 0.170928 -2.36243 0.390293 1.14396 
788 13.4041 40.6843 6.12367 -0.0853596 0.346831 -0.0288752 0.558711 1.1807 -0.659059 
269 17.6644 35.8572 6.04829 -0.293283 -0.374998 0.0630523 -0.270943 0.528503 -1.36971 
799 9.15534 43.086 6.09959 -0.28579 -0.243185 0.0399933 -1.3216 0.87558 -0.859996 