ITEM: TIMESTEP
500
ITEM: NUMBER OF ATOMS
4798
ITEM: BOX BOUNDS ff ff ff
-10.3577 110.358
-10.0998 131.9
-100.402 112.598
ITEM: ATOMS id x y z fx fy fz vx vy vz 
72 -0.062301 2.4752 6.09765 0 0 0 0 0 0 
110 4.19854 7.39519 6.09765 0 0 0 0 0 0 
109 2.77826 7.39519 6.09765 0 0 0 0 0 0 
93 4.19854 4.9352 6.09765 0 0 0 0 0 0 
92 2.77826 4.9352 6.09765 0 0 0 0 0 0 
91 2.06812 6.16519 6.09765 0 0 0 0 0 0 
87 0.647839 6.16519 6.09765 0 0 0 0 0 0 
86 -0.062301 7.39519 6.09765 0 0 0 0 0 0 
81 4.19854 2.4752 6.09765 0 0 0 0 0 0 
80 2.77826 2.4752 6.09765 0 0 0 0 0 0 
79 2.06812 3.7052 6.09765 0 0 0 0 0 0 
78 0.647839 3.7052 6.09765 0 0 0 0 0 0 
77 -0.062301 4.9352 6.09765 0 0 0 0 0 0 
76 4.19854 0.015197 6.09765 0 0 0 0 0 0 
75 2.77826 0.015197 6.09765 0 0 0 0 0 0 
74 2.06812 1.2452 6.09765 0 0 0 0 0 0 
73 0.647839 1.2452 6.09765 0 0 0 0 0 0 
6 -0.062301 12.3152 6.09765 0 0 0 0 0 0 
131 4.19854 12.3152 6.09765 0 0 0 0 0 0 
130 2.77826 12.3152 6.09765 0 0 0 0 0 0 
124 4.19854 9.85519 6.09765 0 0 0 0 0 0 
123 2.77826 9.85519 6.09765 0 0 0 0 0 0 
122 2.06812 11.0852 6.09765 0 0 0 0 0 0 
117 0.647839 11.0852 6.09765 0 0 0 0 0 0 
108 2.06812 8.62519 6.09765 0 0 0 0 0 0 
100 0.647839 8.62519 6.09765 0 0 0 0 0 0 
99 -0.062301 9.85519 6.09765 0 0 0 0 0 0 
34 4.19854 14.7752 6.09765 0 0 0 0 0 0 
33 2.77826 14.7752 6.09765 0 0 0 0 0 0 
32 2.06812 16.0052 6.09765 0 0 0 0 0 0 
31 0.647839 16.0052 6.09765 0 0 0 0 0 0 
19 2.06812 13.5452 6.09765 0 0 0 0 0 0 
18 0.647839 13.5452 6.09765 0 0 0 0 0 0 
17 -0.062301 14.7752 6.09765 0 0 0 0 0 0 
300 4.19854 24.6152 6.09765 0 0 0 0 0 0 
299 2.77826 24.6152 6.09765 0 0 0 0 0 0 
204 4.19854 22.1552 6.09765 0 0 0 0 0 0 
203 2.77826 22.1552 6.09765 0 0 0 0 0 0 
202 2.06812 23.3852 6.09765 0 0 0 0 0 0 
191 0.647839 23.3852 6.09765 0 0 0 0 0 0 
190 -0.062301 24.6152 6.09765 0 0 0 0 0 0 
71 2.06812 20.9252 6.09765 0 0 0 0 0 0 
70 0.647839 20.9252 6.09765 0 0 0 0 0 0 
69 -0.062301 22.1552 6.09765 0 0 0 0 0 0 
63 4.19854 19.6952 6.09765 0 0 0 0 0 0 
62 2.77826 19.6952 6.09765 0 0 0 0 0 0 
49 4.19854 17.2352 6.09765 0 0 0 0 0 0 
48 2.77826 17.2352 6.09765 0 0 0 0 0 0 
47 2.06812 18.4652 6.09765 0 0 0 0 0 0 
46 0.647839 18.4652 6.09765 0 0 0 0 0 0 
45 -0.062301 19.6952 6.09765 0 0 0 0 0 0 
30 -0.062301 17.2352 6.09765 0 0 0 0 0 0 
355 4.19854 31.9952 6.09765 0 0 0 0 0 0 
354 2.77826 31.9952 6.09765 0 0 0 0 0 0 
353 2.06812 33.2252 6.09765 0 0 0 0 0 0 
344 0.647839 33.2252 6.09765 0 0 0 0 0 0 
335 4.19854 29.5352 6.09765 0 0 0 0 0 0 
334 2.77826 29.5352 6.09765 0 0 0 0 0 0 
333 2.06812 30.7652 6.09765 0 0 0 0 0 0 
326 0.647839 30.7652 6.09765 0 0 0 0 0 0 
325 -0.062301 31.9952 6.09765 0 0 0 0 0 0 
315 4.19854 27.0752 6.09765 0 0 0 0 0 0 
314 2.77826 27.0752 6.09765 0 0 0 0 0 0 
313 2.06812 28.3052 6.09765 0 0 0 0 0 0 
308 0.647839 28.3052 6.09765 0 0 0 0 0 0 
307 -0.062301 29.5352 6.09765 0 0 0 0 0 0 
298 2.06812 25.8452 6.09765 0 0 0 0 0 0 
297 0.647839 25.8452 6.09765 0 0 0 0 0 0 
296 -0.062301 27.0752 6.09765 0 0 0 0 0 0 
215 -0.062301 36.9152 6.09765 0 0 0 0 0 0 
376 4.19854 36.9152 6.09765 0 0 0 0 0 0 
375 2.77826 36.9152 6.09765 0 0 0 0 0 0 
369 4.19854 34.4552 6.09765 0 0 0 0 0 0 
368 2.77826 34.4552 6.09765 0 0 0 0 0 0 
367 2.06812 35.6852 6.09765 0 0 0 0 0 0 
362 0.647839 35.6852 6.09765 0 0 0 0 0 0 
343 -0.062301 34.4552 6.09765 0 0 0 0 0 0 
258 4.19854 41.8352 6.09765 0 0 0 0 0 0 
257 2.77826 41.8352 6.09765 0 0 0 0 0 0 
256 2.06812 43.0652 6.09765 0 0 0 0 0 0 
255 0.647839 43.0652 6.09765 0 0 0 0 0 0 
243 4.19854 39.3752 6.09765 0 0 0 0 0 0 
242 2.77826 39.3752 6.09765 0 0 0 0 0 0 
241 2.06812 40.6052 6.09765 0 0 0 0 0 0 
240 0.647839 40.6052 6.09765 0 0 0 0 0 0 
239 -0.062301 41.8352 6.09765 0 0 0 0 0 0 
228 2.06812 38.1452 6.09765 0 0 0 0 0 0 
227 0.647839 38.1452 6.09765 0 0 0 0 0 0 
226 -0.062301 39.3752 6.09765 0 0 0 0 0 0 
254 -0.062301 44.2952 6.09765 0 0 0 0 0 0 
905 4.19854 51.6752 6.09765 0 0 0 0 0 0 
904 2.77826 51.6752 6.09765 0 0 0 0 0 0 
890 4.19854 49.2152 6.09765 0 0 0 0 0 0 
889 2.77826 49.2152 6.09765 0 0 0 0 0 0 
888 2.06812 50.4452 6.09765 0 0 0 0 0 0 
887 0.647839 50.4452 6.09765 0 0 0 0 0 0 
886 -0.062301 51.6752 6.09765 0 0 0 0 0 0 
794 4.19854 46.7552 6.09765 0 0 0 0 0 0 
793 2.77826 46.7552 6.09765 0 0 0 0 0 0 
792 2.06812 47.9852 6.09765 0 0 0 0 0 0 
781 0.647839 47.9852 6.09765 0 0 0 0 0 0 
780 -0.062301 49.2152 6.09765 0 0 0 0 0 0 
280 2.06812 45.5252 6.09765 0 0 0 0 0 0 
279 0.647839 45.5252 6.09765 0 0 0 0 0 0 
278 -0.062301 46.7552 6.09765 0 0 0 0 0 0 
272 4.19854 44.2952 6.09765 0 0 0 0 0 0 
271 2.77826 44.2952 6.09765 0 0 0 0 0 0 
959 4.19854 59.0552 6.09765 0 0 0 0 0 0 
958 2.77826 59.0552 6.09765 0 0 0 0 0 0 
957 2.06812 60.2852 6.09765 0 0 0 0 0 0 
952 0.647839 60.2852 6.09765 0 0 0 0 0 0 
945 4.19854 56.5952 6.09765 0 0 0 0 0 0 
944 2.77826 56.5952 6.09765 0 0 0 0 0 0 
943 2.06812 57.8252 6.09765 0 0 0 0 0 0 
934 0.647839 57.8252 6.09765 0 0 0 0 0 0 
933 -0.062301 59.0552 6.09765 0 0 0 0 0 0 
925 4.19854 54.1352 6.09765 0 0 0 0 0 0 
924 2.77826 54.1352 6.09765 0 0 0 0 0 0 
923 2.06812 55.3652 6.09765 0 0 0 0 0 0 
916 0.647839 55.3652 6.09765 0 0 0 0 0 0 
915 -0.062301 56.5952 6.09765 0 0 0 0 0 0 
903 2.06812 52.9052 6.09765 0 0 0 0 0 0 
898 0.647839 52.9052 6.09765 0 0 0 0 0 0 
897 -0.062301 54.1352 6.09765 0 0 0 0 0 0 
805 -0.062301 61.5152 6.09765 0 0 0 0 0 0 
966 4.19854 61.5152 6.09765 0 0 0 0 0 0 
965 2.77826 61.5152 6.09765 0 0 0 0 0 0 
862 4.19854 68.8952 6.09765 0 0 0 0 0 0 
861 2.77826 68.8952 6.09765 0 0 0 0 0 0 
848 4.19854 66.4352 6.09765 0 0 0 0 0 0 
847 2.77826 66.4352 6.09765 0 0 0 0 0 0 
846 2.06812 67.6652 6.09765 0 0 0 0 0 0 
845 0.647839 67.6652 6.09765 0 0 0 0 0 0 
844 -0.062301 68.8952 6.09765 0 0 0 0 0 0 
833 4.19854 63.9752 6.09765 0 0 0 0 0 0 
832 2.77826 63.9752 6.09765 0 0 0 0 0 0 
831 2.06812 65.2052 6.09765 0 0 0 0 0 0 
830 0.647839 65.2052 6.09765 0 0 0 0 0 0 
829 -0.062301 66.4352 6.09765 0 0 0 0 0 0 
818 2.06812 62.7452 6.09765 0 0 0 0 0 0 
817 0.647839 62.7452 6.09765 0 0 0 0 0 0 
816 -0.062301 63.9752 6.09765 0 0 0 0 0 0 
1828 4.19854 76.2752 6.09765 0 0 0 0 0 0 
1827 2.77826 76.2752 6.09765 0 0 0 0 0 0 
1826 2.06812 77.5052 6.09765 0 0 0 0 0 0 
1821 0.647839 77.5052 6.09765 0 0 0 0 0 0 
1813 4.19854 73.8152 6.09765 0 0 0 0 0 0 
1812 2.77826 73.8152 6.09765 0 0 0 0 0 0 
1811 2.06812 75.0452 6.09765 0 0 0 0 0 0 
1810 0.647839 75.0452 6.09765 0 0 0 0 0 0 
1809 -0.062301 76.2752 6.09765 0 0 0 0 0 0 
1717 4.19854 71.3552 6.09765 0 0 0 0 0 0 
1716 2.77826 71.3552 6.09765 0 0 0 0 0 0 
1715 2.06812 72.5852 6.09765 0 0 0 0 0 0 
1704 0.647839 72.5852 6.09765 0 0 0 0 0 0 
1703 -0.062301 73.8152 6.09765 0 0 0 0 0 0 
870 2.06812 70.1252 6.09765 0 0 0 0 0 0 
869 0.647839 70.1252 6.09765 0 0 0 0 0 0 
868 -0.062301 71.3552 6.09765 0 0 0 0 0 0 
1728 -0.062301 86.1152 6.09765 0 0 0 0 0 0 
1889 4.19854 86.1152 6.09765 0 0 0 0 0 0 
1888 2.77826 86.1152 6.09765 0 0 0 0 0 0 
1882 4.19854 83.6552 6.09765 0 0 0 0 0 0 
1881 2.77826 83.6552 6.09765 0 0 0 0 0 0 
1880 2.06812 84.8852 6.09765 0 0 0 0 0 0 
1875 0.647839 84.8852 6.09765 0 0 0 0 0 0 
1868 4.19854 81.1952 6.09765 0 0 0 0 0 0 
1867 2.77826 81.1952 6.09765 0 0 0 0 0 0 
1866 2.06812 82.4252 6.09765 0 0 0 0 0 0 
1857 0.647839 82.4252 6.09765 0 0 0 0 0 0 
1856 -0.062301 83.6552 6.09765 0 0 0 0 0 0 
1848 4.19854 78.7352 6.09765 0 0 0 0 0 0 
1847 2.77826 78.7352 6.09765 0 0 0 0 0 0 
1846 2.06812 79.9652 6.09765 0 0 0 0 0 0 
1839 0.647839 79.9652 6.09765 0 0 0 0 0 0 
1838 -0.062301 81.1952 6.09765 0 0 0 0 0 0 
1820 -0.062301 78.7352 6.09765 0 0 0 0 0 0 
1741 2.06812 87.3452 6.09765 0 0 0 0 0 0 
1740 0.647839 87.3452 6.09765 0 0 0 0 0 0 
2677 4.19854 95.9552 6.09765 0 0 0 0 0 0 
2676 2.77826 95.9552 6.09765 0 0 0 0 0 0 
1793 2.06812 94.7252 6.09765 0 0 0 0 0 0 
1792 0.647839 94.7252 6.09765 0 0 0 0 0 0 
1791 -0.062301 95.9552 6.09765 0 0 0 0 0 0 
1785 4.19854 93.4952 6.09765 0 0 0 0 0 0 
1784 2.77826 93.4952 6.09765 0 0 0 0 0 0 
1771 4.19854 91.0352 6.09765 0 0 0 0 0 0 
1770 2.77826 91.0352 6.09765 0 0 0 0 0 0 
1769 2.06812 92.2652 6.09765 0 0 0 0 0 0 
1768 0.647839 92.2652 6.09765 0 0 0 0 0 0 
1767 -0.062301 93.4952 6.09765 0 0 0 0 0 0 
1756 4.19854 88.5752 6.09765 0 0 0 0 0 0 
1755 2.77826 88.5752 6.09765 0 0 0 0 0 0 
1754 2.06812 89.8052 6.09765 0 0 0 0 0 0 
1753 0.647839 89.8052 6.09765 0 0 0 0 0 0 
1752 -0.062301 91.0352 6.09765 0 0 0 0 0 0 
1739 -0.062301 88.5752 6.09765 0 0 0 0 0 0 
2663 -0.062301 98.4152 6.09765 0 0 0 0 0 0 
2808 4.19854 103.335 6.09765 0 0 0 0 0 0 
2807 2.77826 103.335 6.09765 0 0 0 0 0 0 
2806 2.06812 104.565 6.09765 0 0 0 0 0 0 
2799 0.647839 104.565 6.09765 0 0 0 0 0 0 
2788 4.19854 100.875 6.09765 0 0 0 0 0 0 
2787 2.77826 100.875 6.09765 0 0 0 0 0 0 
2786 2.06812 102.105 6.09765 0 0 0 0 0 0 
2781 0.647839 102.105 6.09765 0 0 0 0 0 0 
2780 -0.062301 103.335 6.09765 0 0 0 0 0 0 
2773 4.19854 98.4152 6.09765 0 0 0 0 0 0 
2772 2.77826 98.4152 6.09765 0 0 0 0 0 0 
2771 2.06812 99.6452 6.09765 0 0 0 0 0 0 
2770 0.647839 99.6452 6.09765 0 0 0 0 0 0 
2769 -0.062301 100.875 6.09765 0 0 0 0 0 0 
2675 2.06812 97.1852 6.09765 0 0 0 0 0 0 
2664 0.647839 97.1852 6.09765 0 0 0 0 0 0 
2849 4.19854 110.715 6.09765 0 0 0 0 0 0 
2848 2.77826 110.715 6.09765 0 0 0 0 0 0 
2842 4.19854 108.255 6.09765 0 0 0 0 0 0 
2841 2.77826 108.255 6.09765 0 0 0 0 0 0 
2840 2.06812 109.485 6.09765 0 0 0 0 0 0 
2835 0.647839 109.485 6.09765 0 0 0 0 0 0 
2828 4.19854 105.795 6.09765 0 0 0 0 0 0 
2827 2.77826 105.795 6.09765 0 0 0 0 0 0 
2826 2.06812 107.025 6.09765 0 0 0 0 0 0 
2817 0.647839 107.025 6.09765 0 0 0 0 0 0 
2816 -0.062301 108.255 6.09765 0 0 0 0 0 0 
2798 -0.062301 105.795 6.09765 0 0 0 0 0 0 
2716 4.19854 113.175 6.09765 0 0 0 0 0 0 
2715 2.77826 113.175 6.09765 0 0 0 0 0 0 
2701 2.06812 111.945 6.09765 0 0 0 0 0 0 
2700 0.647839 111.945 6.09765 0 0 0 0 0 0 
2699 -0.062301 113.175 6.09765 0 0 0 0 0 0 
2688 -0.062301 110.715 6.09765 0 0 0 0 0 0 
2712 -0.062301 115.635 6.09765 0 0 0 0 0 0 
3636 4.19854 120.555 6.09765 0 0 0 0 0 0 
3635 2.77826 120.555 6.09765 0 0 0 0 0 0 
3634 2.06812 121.785 6.09765 0 0 0 0 0 0 
3623 0.647839 121.785 6.09765 0 0 0 0 0 0 
2753 2.06812 119.325 6.09765 0 0 0 0 0 0 
2752 0.647839 119.325 6.09765 0 0 0 0 0 0 
2751 -0.062301 120.555 6.09765 0 0 0 0 0 0 
2745 4.19854 118.095 6.09765 0 0 0 0 0 0 
2744 2.77826 118.095 6.09765 0 0 0 0 0 0 
2731 4.19854 115.635 6.09765 0 0 0 0 0 0 
2730 2.77826 115.635 6.09765 0 0 0 0 0 0 
2729 2.06812 116.865 6.09765 0 0 0 0 0 0 
2728 0.647839 116.865 6.09765 0 0 0 0 0 0 
2727 -0.062301 118.095 6.09765 0 0 0 0 0 0 
2714 2.06812 114.405 6.09765 0 0 0 0 0 0 
2713 0.647839 114.405 6.09765 0 0 0 0 0 0 
1 10.6175 6.4493 6.11842 -0.0316537 -0.0274453 0.02534 -0.271451 -0.713194 0.443503 
129 9.19869 6.36353 6.12293 0.0645519 0.261491 0.000461503 0.145927 0.755534 -0.219696 
128 8.46766 7.56832 6.1157 -0.128473 -0.0596689 -0.01538 0.416616 0.263697 0.60908 
127 7.04602 7.48506 6.10964 0.176943 0.13388 -0.0141469 -0.763896 -0.126005 -0.0221049 
121 17.8883 1.89446 5.98452 0.0674974 -0.0820337 -0.0218958 -0.00730592 -0.209837 -0.462974 
120 15.6952 3.01695 6.05548 0.0421845 0.0308937 0.0150205 0.15028 -0.0525559 -0.290303 
119 13.5247 4.14103 6.08271 0.18481 -0.0539206 0.0195094 0.290424 -0.00731621 -0.0937218 
118 11.3568 5.25359 6.11304 0.0728635 0.11435 -0.0391072 0.0540252 0.160856 0.0688091 
115 9.22345 3.94703 6.11831 0.11543 0.0228986 0.0684144 0.0613632 0.161547 0.321563 
114 8.47962 5.14026 6.12061 0.0703288 -0.162289 0.0431929 -0.21921 0.15429 0.602529 
113 7.05971 5.04379 6.12382 -0.122781 -0.0777535 -0.0992394 -0.185353 -0.141859 -0.711478 
112 6.32974 6.24969 6.11108 -0.107937 0.0421932 -0.0143539 0.427655 0.0770933 0.14878 
111 4.90868 6.16519 6.09765 0 0 0 0 0 0 
107 15.8036 0.635038 6.07136 -0.0654153 -0.0671948 0.0292716 -0.374147 -0.438912 -1.02942 
106 13.6015 1.72714 6.05406 0.113525 0.0233862 -0.0208409 0.0894425 -0.209827 -0.189506 
105 11.4001 2.84268 6.09392 0.0762508 -0.0659033 0.00201433 0.439009 -0.483708 0.502825 
104 17.1617 0.691884 5.88278 0.0614172 0.0966452 0.0106685 0.147564 0.0303024 -0.458926 
103 14.9951 1.78696 6.05324 0.024116 0.0156443 -0.0379371 -0.214486 0.262372 -0.679583 
102 12.8321 2.91233 6.07864 -0.166006 0.0160042 0.0724035 -0.463522 0.267297 0.205154 
101 10.6485 4.03113 6.11086 -0.149045 -0.087775 -0.0106338 0.194919 -0.41315 0.348028 
98 9.29699 1.53428 6.17137 -0.201212 -0.08142 -0.0688575 -0.180708 0.258929 -0.526685 
97 8.51552 2.71934 6.13736 0.0275423 -0.302518 -0.0923482 -0.428028 -0.198266 0.0264988 
96 7.07247 2.60839 6.09233 0.0557741 0.156431 0.045228 0.15461 -0.268491 -0.060422 
95 6.33268 3.808 6.10319 0.0631459 -0.00163601 0.0566842 0.0740992 0.741455 -0.066956 
94 4.90868 3.7052 6.09765 0 0 0 0 0 0 
90 11.5021 0.458999 5.96303 -0.00803018 0.124174 -0.030183 0.447287 -0.197485 0.318925 
89 12.8721 0.52309 6.04956 0.0289615 0.0643885 -0.012302 0.334319 0.380465 0.563963 
88 10.6937 1.60906 6.08577 0.0090762 0.00894577 0.0174909 0.0883894 -0.430122 0.435697 
85 8.5522 0.336687 6.28811 0.0350114 0.198644 -0.0458282 0.496736 -0.42443 -1.04645 
84 7.19812 0.232032 6.03522 0.0919004 -0.0754346 0.00533414 -0.020701 0.151846 0.136663 
83 6.34268 1.36066 6.07578 0.0732127 0.0296464 0.0679447 -0.437522 -0.225308 0.161507 
82 4.90868 1.2452 6.09765 0 0 0 0 0 0 
28 17.768 6.70936 6.09956 0.0527584 0.0157952 -0.0111917 -0.170189 -0.168892 -0.513672 
2 12.7746 5.32865 6.09954 0.0918759 0.0372388 0.0405269 -0.349892 -0.0639765 -0.588061 
24 19.1838 6.76468 6.08283 -0.00271448 -0.204731 0.0494752 0.010825 -0.0989135 0.12025 
3 14.9448 4.20539 6.08275 -0.0617367 -0.00468476 -0.0813289 -0.162063 -0.67003 -0.0433165 
15 17.8133 4.30268 6.07695 0.0551306 -0.0344748 -0.00956562 0.162726 0.0963021 -0.244767 
14 15.6472 5.42817 6.09428 0.0296214 -0.0589244 0.0238811 0.323132 -0.0305492 -0.607212 
13 13.485 6.55098 6.11193 -0.0947215 0.123914 -0.00861126 -0.353197 -0.293897 -0.194837 
4 17.1208 3.07867 6.03258 0.00706227 -0.0898761 0.0148538 0.281595 0.567243 0.105507 
11 19.2312 4.35299 6.07066 -0.251887 -0.185153 0.0569466 0.673163 -0.478068 0.45026 
10 17.0636 5.48971 6.09735 0.0300929 0.029175 -0.0133711 -0.249992 -0.0835575 -0.740591 
9 14.9021 6.61796 6.10365 0.0142673 0.123546 0.0623345 0.572885 -0.157971 0.0532465 
5 19.2803 1.93894 5.99927 -0.163267 0.0013882 -0.0201514 0.0585182 0.154358 -1.12364 
7 10.5949 8.87508 6.10956 0.0510365 0.101127 -0.0203212 0.278892 -0.527468 -0.0312806 
289 17.6816 16.3847 6.0949 0.11593 0.0569496 0.01492 -0.533222 0.103473 -0.35391 
285 19.0966 16.4386 6.08609 -0.0149496 -0.123352 0.034004 -0.861304 0.166122 -0.323969 
200 17.6959 13.9607 6.08648 -0.00462179 0.0209174 0.00571879 -0.371293 -0.354365 0.677316 
199 15.5549 15.1101 6.09429 -0.170501 0.00556569 0.0286061 -0.423967 -0.121849 -0.261772 
198 13.4156 16.2643 6.09334 0.112557 -0.00893492 0.00484136 -0.158758 -0.565653 -0.0517706 
196 19.1104 14.0141 6.09307 -0.12358 0.0749169 -0.0427712 -0.720056 -0.318421 0.831989 
195 16.9677 15.1645 6.09673 0.124282 0.0100173 -0.0729261 -0.6696 -0.00465396 0.0829175 
194 14.8295 16.3184 6.10706 0.181462 -0.0175714 -0.00459348 -0.33943 -0.612099 -0.194246 
144 9.16256 13.6817 6.10157 0.00876913 -0.0211081 -0.0313361 0.151707 0.291373 -0.200523 
143 8.44799 14.8969 6.11143 -0.00902004 0.0130109 0.014565 -0.343482 -0.556636 0.378593 
142 7.03312 14.8399 6.1102 0.0610085 0.0498451 0.00438101 0.0178257 -0.0729561 0.296253 
141 9.16776 11.24 6.09292 0.0700583 -0.0819298 0.0500909 -0.332606 0.214675 0.0066476 
140 8.44856 12.4495 6.09177 0.102085 0.145108 0.0567148 -0.200118 0.492894 -0.668055 
139 7.03633 12.3894 6.09305 -0.0592629 -0.161246 -0.0281721 0.188332 -0.827763 -0.405706 
138 6.32352 13.6048 6.09686 -0.0689914 0.0278166 0.040598 0.340088 0.0231984 -0.124583 
137 4.90868 13.5452 6.09765 0 0 0 0 0 0 
136 9.17944 8.80199 6.10301 -0.0217877 -0.123438 -0.0159513 0.0967264 0.0713654 0.944065 
135 8.45376 10.0079 6.08943 0.111793 0.0491798 0.017943 0.00820594 -0.226683 -0.0762269 
134 7.03997 9.93711 6.08596 -0.0950185 -0.00128281 0.0233882 -0.0341944 -0.403038 -0.360712 
133 6.3216 11.1542 6.08761 0.113364 -0.0739424 0.0464106 -0.485461 0.630732 0.286595 
132 4.90868 11.0852 6.09765 0 0 0 0 0 0 
126 6.32398 8.69962 6.10439 0.0658162 -0.0723185 -0.0521362 0.117388 -0.25449 0.824413 
125 4.90868 8.62519 6.09765 0 0 0 0 0 0 
68 9.15997 16.1293 6.10823 -0.0574268 0.0116724 -0.014966 0.298583 -0.61438 0.575684 
60 17.7151 11.5395 6.10859 0.0127277 0.0028444 0.0182016 -0.172265 0.04978 0.115078 
59 15.5677 12.6858 6.10625 0.0410522 -0.162464 -0.0472484 -0.0934339 -1.04753 0.214854 
58 13.4261 13.829 6.09829 0.0187022 0.0746997 0.0190077 -0.0326534 0.131781 0.216961 
57 11.291 14.9777 6.09394 -0.0448456 -0.125476 -0.00474853 -0.255528 0.352449 -0.206127 
56 19.1312 11.5935 6.11618 -0.108063 0.0270361 -0.0235387 0.296404 0.548522 -0.167273 
55 16.9838 12.7412 6.09416 0.00211409 -0.0534722 0.0147249 -0.0753934 -0.16001 0.163096 
54 14.8398 13.8862 6.10476 0.104659 0.17022 -0.0394467 -0.530516 -0.468688 0.0999921 
53 12.7046 15.0387 6.09307 -0.00492384 -0.123021 0.0446665 -0.167654 0.194135 0.442466 
52 10.5739 16.1893 6.09545 -0.109086 -0.0398601 0.0490534 -0.0385307 -0.410383 -0.156341 
51 6.32165 16.0601 6.10542 0.099644 -0.0151996 0.0305039 0.280235 0.174084 0.465495 
50 4.90868 16.0052 6.09765 0 0 0 0 0 0 
43 17.7358 9.12102 6.11876 0.022354 0.183221 -0.000134367 -0.033541 -0.360897 0.38994 
42 15.5891 10.2611 6.11964 -0.210634 -0.027126 0.000750261 -0.518366 -0.322699 0.10868 
41 13.441 11.3977 6.11548 0.0144772 0.063981 0.00516268 0.0673473 -0.527296 0.219898 
40 11.2989 12.5369 6.09704 -0.0193965 -0.027403 0.0159531 0.0258491 -0.0349475 0.52464 
39 19.1504 9.17784 6.09939 0.121851 -0.0333513 0.00626997 0.174256 -0.0544034 -0.742612 
38 17.0012 10.3212 6.12773 0.225295 -0.0701535 -0.0672853 -0.191119 -0.0101566 0.684003 
37 14.8564 11.4613 6.11377 0.0225579 0.0462409 0.0334872 -0.245716 -0.0673956 0.946022 
36 12.7141 12.6039 6.10187 0.00810343 -0.0866235 0.00788361 -0.637605 0.0429803 0.583816 
35 10.5762 13.7455 6.0991 0.0887197 0.151752 0.00742549 -0.027321 -0.33638 0.0878245 
26 13.4569 8.97165 6.12726 0.111426 0.0843125 -0.0125678 0.0342917 -0.139275 -0.682185 
25 11.3088 10.1024 6.11721 0.10471 0.0443914 0.0337857 0.0405817 0.322068 -0.414029 
22 14.8748 9.0381 6.11647 0.0402433 -0.0134352 0.0734825 0.349773 0.266614 -0.598674 
21 12.7254 10.1736 6.12591 0.0582126 -0.0448274 -0.0603941 0.266029 -0.140939 0.146329 
20 10.5841 11.3091 6.10897 -0.044835 0.0361267 -0.0698071 -0.221295 -0.721883 0.0698959 
290 19.8208 15.2322 6.07708 0.11627 0.110237 0.0781732 0.0743609 0.423741 -0.162438 
27 15.6111 7.83947 6.11543 0.130646 0.0912401 -0.050296 -0.272213 0.0163961 -0.381821 
23 17.0308 7.90342 6.11986 -0.287994 -0.0978151 -0.0320557 0.08126 -0.0443754 0.131627 
12 11.3291 7.67726 6.11487 0.00530945 -0.114271 0.0437301 0.331515 0.0793969 0.256908 
8 12.7451 7.74971 6.12829 0.0545377 -0.140656 -0.0650114 0.370362 -0.055441 -0.111139 
352 17.6589 23.6795 6.10271 0.067361 -0.0145116 0.00737068 0.154439 -0.477887 -0.0335028 
351 15.5267 24.8503 6.1014 0.0129798 -0.106866 0.0115785 -0.0229671 0.118402 0.253158 
348 16.9407 24.8881 6.10702 -0.022482 0.265871 -0.0357577 -0.0269597 0.0733726 0.0120341 
341 19.0723 23.7242 6.09777 0.0602257 -0.0205938 -0.00539923 0.0496068 0.274694 0.0148835 
332 15.5348 22.4098 6.08899 -0.0282591 0.0208302 0.0715151 -0.146831 -0.575698 -0.0878765 
331 13.4023 23.5784 6.10367 0.0983329 -0.052145 -0.0246942 -0.0711298 0.502322 0.0176721 
330 11.2735 24.7498 6.10701 -0.0461156 -0.104725 0.0341899 -0.0249987 0.0790603 -0.345614 
329 14.8169 23.6227 6.09323 -0.0797952 0.0142558 0.0103129 0.363075 0.202044 0.342668 
328 12.6876 24.79 6.10814 -0.0398242 0.218686 -0.0449871 0.530556 -0.286902 0.0298536 
323 17.6696 21.247 6.09522 -0.0190936 0.0405262 0.0564769 -0.198551 -0.121353 0.249182 
322 19.0837 21.2906 6.09408 -0.167941 0.118752 -0.0045468 0.0491124 -0.483304 -0.134615 
321 16.948 22.4567 6.09281 4.71026e-05 -0.0670067 0.0365141 -0.0358846 -0.201464 -0.088449 
320 9.15221 23.4772 6.11038 -0.169921 0.0378777 0.00940888 0.0075826 0.409408 0.157128 
319 8.44133 24.6988 6.11104 0.0368197 0.0559101 0.0164516 -0.315911 0.059036 0.273063 
318 7.02686 24.6625 6.1034 0.0296835 -0.0898868 0.0408919 -0.124243 0.0123431 -0.125204 
312 13.4117 21.1381 6.11074 -0.250788 -0.0459378 -0.0583291 -0.0761021 0.1457 -0.527689 
311 11.2802 22.3029 6.11266 -0.00940561 -0.0149423 0.00750201 -0.0640642 -0.186429 0.228088 
310 12.6934 22.352 6.11198 -0.00536467 -0.0785293 -0.025309 -0.00489202 -0.430971 0.516021 
309 10.5626 23.5168 6.11274 0.245054 0.257165 0.0219747 0.478793 -0.071745 0.258489 
305 17.677 18.8151 6.11157 -0.174317 0.00893103 -0.068447 -0.50339 0.412372 0.929401 
304 15.5415 19.9731 6.10068 0.0431362 -0.0102027 0.0422689 -0.0126256 0.0808443 -0.0669145 
303 19.0869 18.8627 6.10226 0.151692 0.0555516 -0.0168906 0.0690114 0.179481 0.265371 
302 16.9571 20.0259 6.10859 -0.0811893 -0.122043 -0.032575 -0.29901 -0.516971 -0.207587 
301 14.8217 21.1845 6.10176 0.136755 0.0303181 0.0145501 -0.180905 -0.285638 -0.0677197 
295 9.1551 21.0292 6.10832 -0.0460623 -0.0066255 0.0019441 0.0977311 -0.0912308 0.0248512 
294 8.44128 22.2482 6.09885 0.182682 -0.139545 0.0447001 0.0378658 -0.08277 -0.0478747 
293 7.03048 22.2018 6.09731 -0.131573 0.123314 0.0436546 -0.13836 -0.342589 0.323405 
292 6.32455 23.4269 6.10251 -0.169514 -0.0739623 -0.0562082 -0.452466 0.0492963 0.00237509 
291 4.90868 23.3852 6.09765 0 0 0 0 0 0 
288 15.5485 17.5394 6.11208 0.00171831 0.0486418 -0.0500642 -0.705976 -0.372529 0.1087 
287 13.413 18.6997 6.09016 0.0817527 -0.0485417 0.0389026 0.097884 0.145468 0.200994 
286 11.2818 19.8562 6.09821 0.0706869 0.248755 0.0137614 0.671628 0.228274 0.55961 
284 16.9633 17.593 6.10619 -0.160035 0.0357027 0.0571626 -0.824957 -0.825366 -0.0489395 
283 14.8284 18.7478 6.10398 -0.0708251 0.146581 -0.0441241 -0.131302 -0.389815 -0.0693976 
282 12.6968 19.9126 6.09833 -0.0633903 -0.0817861 0.0206098 0.142005 -0.318588 0.138503 
281 10.5692 21.0742 6.10624 -0.0647148 -0.00812604 -0.0144259 0.303654 -0.0346255 -0.398058 
209 9.1558 18.578 6.10957 -0.0683965 0.0649464 -0.0550687 0.349903 0.246478 -0.410442 
208 8.44402 19.7984 6.1083 0.0477014 -0.101167 -0.0174751 -0.0535436 0.350421 -0.242615 
207 7.03127 19.7514 6.10026 -0.06613 -0.0941095 -0.0228234 0.133144 -0.119652 0.444934 
206 6.31977 20.9702 6.09462 0.145166 0.088649 0.0303518 0.0506207 -0.217316 0.428132 
205 4.90868 20.9252 6.09765 0 0 0 0 0 0 
197 11.2823 17.4174 6.09479 0.229507 0.0676487 0.0160996 -0.176736 0.410378 0.14871 
193 12.698 17.4745 6.09921 -0.114588 0.0361163 -0.0298385 -0.060864 0.058531 -0.660796 
192 10.5691 18.6308 6.08935 -0.0377753 -0.0758289 0.109197 -0.188853 -0.214184 -0.164839 
67 8.44499 17.3453 6.11327 0.03489 0.0298883 -0.0188714 -0.164288 -0.00643037 0.116412 
66 7.03299 17.2954 6.10721 -0.113237 -0.0510008 0.00977379 -0.285106 0.528073 -0.435552 
65 6.32091 18.5156 6.10035 0.149342 0.0645503 0.0209744 0.123946 0.335346 0.00912072 
64 4.90868 18.4652 6.09765 0 0 0 0 0 0 
306 19.8108 17.6577 6.09501 -0.0160902 -0.0453232 -0.0217198 -0.00473009 0.156409 -0.0333603 
324 19.8022 20.0835 6.10089 0.0702783 -0.0510116 0.026446 -0.499947 0.0209571 0.443339 
342 19.7916 22.5148 6.09631 0.111065 -0.0543171 0.0149886 0.705211 -0.423185 -0.0985476 
361 19.7906 24.9434 6.10537 -0.145811 -0.0197019 0.0574163 0.171829 0.245859 -0.494569 
210 10.5659 30.8727 6.09748 -0.14503 -0.11662 -0.0309394 -0.0513155 0.799145 -0.0121714 
381 9.1483 33.294 6.0908 0.0595129 -0.144929 0.0467838 -0.37693 -0.310386 0.036432 
374 9.14978 30.8427 6.09316 0.103499 -0.000175526 0.0308196 -0.146764 0.322662 -0.553968 
373 8.44139 32.0645 6.09505 0.0159591 -0.0471478 -0.0161207 -0.137874 0.312712 -0.241306 
372 7.02854 32.0298 6.09086 -0.0734939 0.127462 0.0538172 -0.392356 -0.021331 -0.416071 
371 6.32284 33.2562 6.10074 -0.0326573 -0.0675059 -0.0806083 -0.319686 0.0736907 -0.0282641 
370 4.90868 33.2252 6.09765 0 0 0 0 0 0 
366 17.6529 26.1143 6.11873 0.111958 -0.155993 -0.00030117 -0.699826 0.0482436 -0.188628 
365 15.5234 27.2887 6.11188 0.007077 0.0594067 -0.0707015 -0.473638 -0.42965 -0.0336477 
364 13.3937 28.4682 6.11134 0.113182 -0.0544136 -0.0108427 -0.15127 -0.347785 -0.0219278 
363 11.2692 29.6466 6.10706 -0.00346672 0.156918 -0.0300395 -0.0890427 -0.274014 -0.0515278 
360 9.14722 28.3877 6.11343 0.0821593 -0.0648551 0.0275925 0.365025 0.251839 0.325967 
359 8.44337 29.6121 6.11347 -0.00172185 -0.0896182 -0.0757809 0.422997 0.498252 0.419897 
358 7.02918 29.5761 6.11184 -0.0236807 -0.0197575 -0.0325037 -0.302855 0.361323 -0.154035 
357 6.32141 30.7993 6.09175 0.0246569 -0.0218419 0.0867864 -0.0895754 0.383594 -0.274759 
356 4.90868 30.7652 6.09765 0 0 0 0 0 0 
350 13.3967 26.0209 6.10246 0.0245386 -0.00510589 -0.0140798 -0.255757 0.221146 0.416052 
349 11.2707 27.2 6.10708 0.0969018 -0.0735573 0.0202013 -0.100816 0.238392 -0.31485 
347 14.8119 26.0649 6.09754 -0.0724208 -0.117996 0.087974 0.256808 -0.548328 0.421438 
346 12.6855 27.2402 6.10074 -0.0988814 -0.0576607 0.0244887 -0.0535431 0.434419 0.632203 
345 10.5605 28.418 6.10797 0.0155391 0.0721895 0.0371141 0.236527 -0.298151 0.173038 
340 9.14936 25.9322 6.11023 0.108545 -0.0635829 0.0479693 0.278155 -0.120586 -0.248276 
339 8.44565 27.1544 6.11364 -0.186678 0.0103523 0.0067488 0.32184 0.220651 0.37194 
338 7.03072 27.1177 6.10978 -0.0568916 -0.0226122 0.0427561 -0.0176651 0.0612262 0.122789 
337 6.32513 28.3412 6.11306 -0.158443 0.0584557 -0.0674503 -0.355353 -0.242247 0.678175 
336 4.90868 28.3052 6.09765 0 0 0 0 0 0 
327 10.5654 25.9686 6.11131 -0.161361 0.0257323 -0.0134663 -0.250789 0.0281625 0.439877 
317 6.32071 25.885 6.1043 0.11198 0.0676216 0.00509537 0.0964347 0.298772 0.0873437 
316 4.90868 25.8452 6.09765 0 0 0 0 0 0 
252 17.6499 33.4264 6.11855 0.0190132 -0.0233748 0.0210254 0.01239 -0.141668 0.0578287 
248 19.0634 33.4532 6.11933 -0.021426 0.0978376 -0.00456714 -0.232973 -0.529251 -0.0573746 
237 17.6507 30.9847 6.11308 -0.00821117 0.173795 -0.0135726 0.255807 0.43864 -0.0541425 
236 15.5257 32.1664 6.10987 -0.0921848 0.177945 0.0129465 -0.461162 0.0375476 -0.490154 
235 13.401 33.3575 6.10101 -0.175254 -0.0219013 -0.0140102 0.0370531 -0.457329 0.127974 
233 19.0628 31.0182 6.10623 0.0565896 0.126037 0.0666338 -0.076769 -0.025701 0.064739 
232 16.9378 32.2032 6.12001 0.0472088 -0.0990704 -0.0385778 0.329272 -0.529738 -0.230772 
231 14.8137 33.3861 6.10195 0.0267922 0.00862112 0.0476558 -0.0867801 0.016628 -0.0660931 
224 17.6543 28.5497 6.12216 -0.15227 -0.0115658 -0.111184 -0.182221 0.043332 0.13131 
223 15.5236 29.7279 6.11376 0.0281042 0.000104367 -0.031275 0.166739 -0.184689 -0.000974106 
222 13.3971 30.9082 6.10052 -0.0145841 0.13649 0.0493195 -0.337208 -0.510685 -0.393292 
221 11.2759 32.1004 6.0935 -0.0865157 0.0036979 0.0366625 0.348266 -0.727029 0.0294357 
220 19.0661 28.5834 6.11329 0.105023 0.0905355 -0.00485159 -0.10147 0.140494 -0.00920362 
219 16.9367 29.765 6.10851 0.0228191 -0.147483 0.0472731 0.164309 -0.696831 -0.102925 
218 14.8106 30.9445 6.11355 -0.00138684 -0.0775897 -0.0552519 -0.0233764 0.455966 -0.0307126 
217 12.6884 32.1307 6.09684 0.0745295 0.0360273 -0.0365907 -0.314535 -0.343083 -0.29768 
216 10.5621 33.3192 6.09649 0.107546 0.137519 -0.0596553 0.66309 0.479483 -0.263702 
214 19.0694 26.1545 6.11431 -0.088993 -0.11297 0.0054562 0.0594981 -0.138538 0.0259121 
213 16.9375 27.3274 6.11295 -0.0204365 0.0432883 -0.00442756 0.694455 0.133364 -0.139901 
212 14.8099 28.5053 6.10841 -0.107794 -0.0455304 0.00628314 -0.685193 0.250852 0.333669 
211 12.6808 29.6849 6.10435 0.0982861 -0.00026866 0.0257947 1.06147 -0.269453 0.122348 
238 19.7781 29.8069 6.11064 0.0364535 -0.132173 -0.0443838 -0.790968 0.369979 0.590365 
225 19.7834 27.3719 6.11247 0.147241 0.0764201 0.0152785 -0.193458 -0.428483 -0.162715 
253 19.7778 32.2405 6.10855 -0.0558943 -0.177516 -0.0426783 0.0275141 -0.638631 0.0488337 
896 19.7744 41.9973 6.0791 0.0121373 -0.0709255 -0.0192482 0.0982944 -0.0469523 -0.289003 
879 17.6437 40.7491 6.09177 0.0263632 0.0618229 0.028516 0.169289 -0.408913 -0.769761 
878 15.5192 41.9473 6.10108 0.0136714 0.0262851 -0.0320199 -0.0129249 -0.526101 -0.342112 
877 13.3967 43.1512 6.10383 -0.106077 -0.105911 -0.07183 0.384949 0.180843 0.00645825 
875 19.0592 40.7779 6.08147 0.0493955 -0.18374 0.0085561 0.310557 -0.457418 0.274418 
874 16.9307 41.9684 6.09795 0.197576 0.0869012 -0.049532 -0.152938 0.314946 0.256287 
880 19.7741 39.5564 6.08939 -0.155724 0.108483 0.0463546 -0.673433 -0.0694753 0.152381 
799 9.15131 43.1052 6.08448 -0.0385841 0.032347 0.0326135 -0.39915 -0.0263919 0.321651 
790 17.6479 38.3115 6.10375 -0.0711991 -0.253966 -0.0208642 0.0692715 -0.152314 -0.763059 
789 15.5196 39.5026 6.1005 0.0251526 0.0053728 -0.00605523 0.431347 0.0792961 -0.236404 
788 13.3959 40.6996 6.10186 -0.0508929 0.127514 0.0342038 0.160993 -0.0339638 0.0513974 
787 11.2712 41.905 6.09928 0.116524 -0.16108 0.00185205 0.177523 0.0518823 -0.477716 
786 19.0597 38.3356 6.09818 0.183244 -0.176083 0.0382584 -0.0888611 -0.190952 -0.00154382 
785 16.9346 39.525 6.09736 -0.0531512 0.181258 0.0359583 -0.0382529 -0.192738 -0.126138 
784 14.8099 40.7249 6.09882 -0.0126038 -0.138407 0.0210492 0.0466061 0.390211 0.0999643 
783 12.6867 41.9228 6.10405 -0.0216678 0.00637403 0.00115155 0.0993396 -0.0921103 -0.076684 
782 10.5667 43.1254 6.09184 -0.190835 0.116627 -0.0459 -0.596319 -0.227708 -0.400817 
389 9.15281 38.1962 6.09257 -0.132966 -0.0139668 0.0434705 0.14061 -0.0327636 0.24486 
388 8.4446 39.4221 6.08968 0.0178073 -0.0891051 0.0258126 0.239328 -0.379005 0.116086 
387 7.02871 39.3981 6.0943 0.0300327 0.0212202 -0.0279041 0.21844 0.280841 -0.39836 
386 9.15278 35.7438 6.09719 -0.102214 -0.130627 -0.0212969 0.150894 0.0559031 0.232719 
385 8.44441 36.965 6.09617 0.0273883 0.164644 0.00503294 -0.238184 -0.117467 -0.0305837 
384 7.02941 36.9438 6.09107 0.0401667 -0.0314904 0.0124405 -0.341836 -0.514917 0.328946 