ITEM: TIMESTEP
6900
ITEM: NUMBER OF ATOMS
4798
ITEM: BOX BOUNDS ff ff ff
-10.3577 110.358
-10.0998 131.9
-100.402 112.598
ITEM: ATOMS id x y z fx fy fz vx vy vz 
72 -0.062301 2.4752 6.09765 0 0 0 0 0 0 
110 4.19854 7.39519 6.09765 0 0 0 0 0 0 
109 2.77826 7.39519 6.09765 0 0 0 0 0 0 
93 4.19854 4.9352 6.09765 0 0 0 0 0 0 
92 2.77826 4.9352 6.09765 0 0 0 0 0 0 
91 2.06812 6.16519 6.09765 0 0 0 0 0 0 
87 0.647839 6.16519 6.09765 0 0 0 0 0 0 
86 -0.062301 7.39519 6.09765 0 0 0 0 0 0 
81 4.19854 2.4752 6.09765 0 0 0 0 0 0 
80 2.77826 2.4752 6.09765 0 0 0 0 0 0 
79 2.06812 3.7052 6.09765 0 0 0 0 0 0 
78 0.647839 3.7052 6.09765 0 0 0 0 0 0 
77 -0.062301 4.9352 6.09765 0 0 0 0 0 0 
76 4.19854 0.015197 6.09765 0 0 0 0 0 0 
75 2.77826 0.015197 6.09765 0 0 0 0 0 0 
74 2.06812 1.2452 6.09765 0 0 0 0 0 0 
73 0.647839 1.2452 6.09765 0 0 0 0 0 0 
6 -0.062301 12.3152 6.09765 0 0 0 0 0 0 
131 4.19854 12.3152 6.09765 0 0 0 0 0 0 
130 2.77826 12.3152 6.09765 0 0 0 0 0 0 
124 4.19854 9.85519 6.09765 0 0 0 0 0 0 
123 2.77826 9.85519 6.09765 0 0 0 0 0 0 
122 2.06812 11.0852 6.09765 0 0 0 0 0 0 
117 0.647839 11.0852 6.09765 0 0 0 0 0 0 
108 2.06812 8.62519 6.09765 0 0 0 0 0 0 
100 0.647839 8.62519 6.09765 0 0 0 0 0 0 
99 -0.062301 9.85519 6.09765 0 0 0 0 0 0 
34 4.19854 14.7752 6.09765 0 0 0 0 0 0 
33 2.77826 14.7752 6.09765 0 0 0 0 0 0 
32 2.06812 16.0052 6.09765 0 0 0 0 0 0 
31 0.647839 16.0052 6.09765 0 0 0 0 0 0 
19 2.06812 13.5452 6.09765 0 0 0 0 0 0 
18 0.647839 13.5452 6.09765 0 0 0 0 0 0 
17 -0.062301 14.7752 6.09765 0 0 0 0 0 0 
300 4.19854 24.6152 6.09765 0 0 0 0 0 0 
299 2.77826 24.6152 6.09765 0 0 0 0 0 0 
204 4.19854 22.1552 6.09765 0 0 0 0 0 0 
203 2.77826 22.1552 6.09765 0 0 0 0 0 0 
202 2.06812 23.3852 6.09765 0 0 0 0 0 0 
191 0.647839 23.3852 6.09765 0 0 0 0 0 0 
190 -0.062301 24.6152 6.09765 0 0 0 0 0 0 
71 2.06812 20.9252 6.09765 0 0 0 0 0 0 
70 0.647839 20.9252 6.09765 0 0 0 0 0 0 
69 -0.062301 22.1552 6.09765 0 0 0 0 0 0 
63 4.19854 19.6952 6.09765 0 0 0 0 0 0 
62 2.77826 19.6952 6.09765 0 0 0 0 0 0 
49 4.19854 17.2352 6.09765 0 0 0 0 0 0 
48 2.77826 17.2352 6.09765 0 0 0 0 0 0 
47 2.06812 18.4652 6.09765 0 0 0 0 0 0 
46 0.647839 18.4652 6.09765 0 0 0 0 0 0 
45 -0.062301 19.6952 6.09765 0 0 0 0 0 0 
30 -0.062301 17.2352 6.09765 0 0 0 0 0 0 
355 4.19854 31.9952 6.09765 0 0 0 0 0 0 
354 2.77826 31.9952 6.09765 0 0 0 0 0 0 
353 2.06812 33.2252 6.09765 0 0 0 0 0 0 
344 0.647839 33.2252 6.09765 0 0 0 0 0 0 
335 4.19854 29.5352 6.09765 0 0 0 0 0 0 
334 2.77826 29.5352 6.09765 0 0 0 0 0 0 
333 2.06812 30.7652 6.09765 0 0 0 0 0 0 
326 0.647839 30.7652 6.09765 0 0 0 0 0 0 
325 -0.062301 31.9952 6.09765 0 0 0 0 0 0 
315 4.19854 27.0752 6.09765 0 0 0 0 0 0 
314 2.77826 27.0752 6.09765 0 0 0 0 0 0 
313 2.06812 28.3052 6.09765 0 0 0 0 0 0 
308 0.647839 28.3052 6.09765 0 0 0 0 0 0 
307 -0.062301 29.5352 6.09765 0 0 0 0 0 0 
298 2.06812 25.8452 6.09765 0 0 0 0 0 0 
297 0.647839 25.8452 6.09765 0 0 0 0 0 0 
296 -0.062301 27.0752 6.09765 0 0 0 0 0 0 
215 -0.062301 36.9152 6.09765 0 0 0 0 0 0 
376 4.19854 36.9152 6.09765 0 0 0 0 0 0 
375 2.77826 36.9152 6.09765 0 0 0 0 0 0 
369 4.19854 34.4552 6.09765 0 0 0 0 0 0 
368 2.77826 34.4552 6.09765 0 0 0 0 0 0 
367 2.06812 35.6852 6.09765 0 0 0 0 0 0 
362 0.647839 35.6852 6.09765 0 0 0 0 0 0 
343 -0.062301 34.4552 6.09765 0 0 0 0 0 0 
258 4.19854 41.8352 6.09765 0 0 0 0 0 0 
257 2.77826 41.8352 6.09765 0 0 0 0 0 0 
256 2.06812 43.0652 6.09765 0 0 0 0 0 0 
255 0.647839 43.0652 6.09765 0 0 0 0 0 0 
243 4.19854 39.3752 6.09765 0 0 0 0 0 0 
242 2.77826 39.3752 6.09765 0 0 0 0 0 0 
241 2.06812 40.6052 6.09765 0 0 0 0 0 0 
240 0.647839 40.6052 6.09765 0 0 0 0 0 0 
239 -0.062301 41.8352 6.09765 0 0 0 0 0 0 
228 2.06812 38.1452 6.09765 0 0 0 0 0 0 
227 0.647839 38.1452 6.09765 0 0 0 0 0 0 
226 -0.062301 39.3752 6.09765 0 0 0 0 0 0 
254 -0.062301 44.2952 6.09765 0 0 0 0 0 0 
905 4.19854 51.6752 6.09765 0 0 0 0 0 0 
904 2.77826 51.6752 6.09765 0 0 0 0 0 0 
890 4.19854 49.2152 6.09765 0 0 0 0 0 0 
889 2.77826 49.2152 6.09765 0 0 0 0 0 0 
888 2.06812 50.4452 6.09765 0 0 0 0 0 0 
887 0.647839 50.4452 6.09765 0 0 0 0 0 0 
886 -0.062301 51.6752 6.09765 0 0 0 0 0 0 
794 4.19854 46.7552 6.09765 0 0 0 0 0 0 
793 2.77826 46.7552 6.09765 0 0 0 0 0 0 
792 2.06812 47.9852 6.09765 0 0 0 0 0 0 
781 0.647839 47.9852 6.09765 0 0 0 0 0 0 
780 -0.062301 49.2152 6.09765 0 0 0 0 0 0 
280 2.06812 45.5252 6.09765 0 0 0 0 0 0 
279 0.647839 45.5252 6.09765 0 0 0 0 0 0 
278 -0.062301 46.7552 6.09765 0 0 0 0 0 0 
272 4.19854 44.2952 6.09765 0 0 0 0 0 0 
271 2.77826 44.2952 6.09765 0 0 0 0 0 0 
959 4.19854 59.0552 6.09765 0 0 0 0 0 0 
958 2.77826 59.0552 6.09765 0 0 0 0 0 0 
957 2.06812 60.2852 6.09765 0 0 0 0 0 0 
952 0.647839 60.2852 6.09765 0 0 0 0 0 0 
945 4.19854 56.5952 6.09765 0 0 0 0 0 0 
944 2.77826 56.5952 6.09765 0 0 0 0 0 0 
943 2.06812 57.8252 6.09765 0 0 0 0 0 0 
934 0.647839 57.8252 6.09765 0 0 0 0 0 0 
933 -0.062301 59.0552 6.09765 0 0 0 0 0 0 
925 4.19854 54.1352 6.09765 0 0 0 0 0 0 
924 2.77826 54.1352 6.09765 0 0 0 0 0 0 
923 2.06812 55.3652 6.09765 0 0 0 0 0 0 
916 0.647839 55.3652 6.09765 0 0 0 0 0 0 
915 -0.062301 56.5952 6.09765 0 0 0 0 0 0 
903 2.06812 52.9052 6.09765 0 0 0 0 0 0 
898 0.647839 52.9052 6.09765 0 0 0 0 0 0 
897 -0.062301 54.1352 6.09765 0 0 0 0 0 0 
805 -0.062301 61.5152 6.09765 0 0 0 0 0 0 
966 4.19854 61.5152 6.09765 0 0 0 0 0 0 
965 2.77826 61.5152 6.09765 0 0 0 0 0 0 
862 4.19854 68.8952 6.09765 0 0 0 0 0 0 
861 2.77826 68.8952 6.09765 0 0 0 0 0 0 
848 4.19854 66.4352 6.09765 0 0 0 0 0 0 
847 2.77826 66.4352 6.09765 0 0 0 0 0 0 
846 2.06812 67.6652 6.09765 0 0 0 0 0 0 
845 0.647839 67.6652 6.09765 0 0 0 0 0 0 
844 -0.062301 68.8952 6.09765 0 0 0 0 0 0 
833 4.19854 63.9752 6.09765 0 0 0 0 0 0 
832 2.77826 63.9752 6.09765 0 0 0 0 0 0 
831 2.06812 65.2052 6.09765 0 0 0 0 0 0 
830 0.647839 65.2052 6.09765 0 0 0 0 0 0 
829 -0.062301 66.4352 6.09765 0 0 0 0 0 0 
818 2.06812 62.7452 6.09765 0 0 0 0 0 0 
817 0.647839 62.7452 6.09765 0 0 0 0 0 0 
816 -0.062301 63.9752 6.09765 0 0 0 0 0 0 
1828 4.19854 76.2752 6.09765 0 0 0 0 0 0 
1827 2.77826 76.2752 6.09765 0 0 0 0 0 0 
1826 2.06812 77.5052 6.09765 0 0 0 0 0 0 
1821 0.647839 77.5052 6.09765 0 0 0 0 0 0 
1813 4.19854 73.8152 6.09765 0 0 0 0 0 0 
1812 2.77826 73.8152 6.09765 0 0 0 0 0 0 
1811 2.06812 75.0452 6.09765 0 0 0 0 0 0 
1810 0.647839 75.0452 6.09765 0 0 0 0 0 0 
1809 -0.062301 76.2752 6.09765 0 0 0 0 0 0 
1717 4.19854 71.3552 6.09765 0 0 0 0 0 0 
1716 2.77826 71.3552 6.09765 0 0 0 0 0 0 
1715 2.06812 72.5852 6.09765 0 0 0 0 0 0 
1704 0.647839 72.5852 6.09765 0 0 0 0 0 0 
1703 -0.062301 73.8152 6.09765 0 0 0 0 0 0 
870 2.06812 70.1252 6.09765 0 0 0 0 0 0 
869 0.647839 70.1252 6.09765 0 0 0 0 0 0 
868 -0.062301 71.3552 6.09765 0 0 0 0 0 0 
1728 -0.062301 86.1152 6.09765 0 0 0 0 0 0 
1889 4.19854 86.1152 6.09765 0 0 0 0 0 0 
1888 2.77826 86.1152 6.09765 0 0 0 0 0 0 
1882 4.19854 83.6552 6.09765 0 0 0 0 0 0 
1881 2.77826 83.6552 6.09765 0 0 0 0 0 0 
1880 2.06812 84.8852 6.09765 0 0 0 0 0 0 
1875 0.647839 84.8852 6.09765 0 0 0 0 0 0 
1868 4.19854 81.1952 6.09765 0 0 0 0 0 0 
1867 2.77826 81.1952 6.09765 0 0 0 0 0 0 
1866 2.06812 82.4252 6.09765 0 0 0 0 0 0 
1857 0.647839 82.4252 6.09765 0 0 0 0 0 0 
1856 -0.062301 83.6552 6.09765 0 0 0 0 0 0 
1848 4.19854 78.7352 6.09765 0 0 0 0 0 0 
1847 2.77826 78.7352 6.09765 0 0 0 0 0 0 
1846 2.06812 79.9652 6.09765 0 0 0 0 0 0 
1839 0.647839 79.9652 6.09765 0 0 0 0 0 0 
1838 -0.062301 81.1952 6.09765 0 0 0 0 0 0 
1820 -0.062301 78.7352 6.09765 0 0 0 0 0 0 
1741 2.06812 87.3452 6.09765 0 0 0 0 0 0 
1740 0.647839 87.3452 6.09765 0 0 0 0 0 0 
2677 4.19854 95.9552 6.09765 0 0 0 0 0 0 
2676 2.77826 95.9552 6.09765 0 0 0 0 0 0 
1793 2.06812 94.7252 6.09765 0 0 0 0 0 0 
1792 0.647839 94.7252 6.09765 0 0 0 0 0 0 
1791 -0.062301 95.9552 6.09765 0 0 0 0 0 0 
1785 4.19854 93.4952 6.09765 0 0 0 0 0 0 
1784 2.77826 93.4952 6.09765 0 0 0 0 0 0 
1771 4.19854 91.0352 6.09765 0 0 0 0 0 0 
1770 2.77826 91.0352 6.09765 0 0 0 0 0 0 
1769 2.06812 92.2652 6.09765 0 0 0 0 0 0 
1768 0.647839 92.2652 6.09765 0 0 0 0 0 0 
1767 -0.062301 93.4952 6.09765 0 0 0 0 0 0 
1756 4.19854 88.5752 6.09765 0 0 0 0 0 0 
1755 2.77826 88.5752 6.09765 0 0 0 0 0 0 
1754 2.06812 89.8052 6.09765 0 0 0 0 0 0 
1753 0.647839 89.8052 6.09765 0 0 0 0 0 0 
1752 -0.062301 91.0352 6.09765 0 0 0 0 0 0 
1739 -0.062301 88.5752 6.09765 0 0 0 0 0 0 
2663 -0.062301 98.4152 6.09765 0 0 0 0 0 0 
2808 4.19854 103.335 6.09765 0 0 0 0 0 0 
2807 2.77826 103.335 6.09765 0 0 0 0 0 0 
2806 2.06812 104.565 6.09765 0 0 0 0 0 0 
2799 0.647839 104.565 6.09765 0 0 0 0 0 0 
2788 4.19854 100.875 6.09765 0 0 0 0 0 0 
2787 2.77826 100.875 6.09765 0 0 0 0 0 0 
2786 2.06812 102.105 6.09765 0 0 0 0 0 0 
2781 0.647839 102.105 6.09765 0 0 0 0 0 0 
2780 -0.062301 103.335 6.09765 0 0 0 0 0 0 
2773 4.19854 98.4152 6.09765 0 0 0 0 0 0 
2772 2.77826 98.4152 6.09765 0 0 0 0 0 0 
2771 2.06812 99.6452 6.09765 0 0 0 0 0 0 
2770 0.647839 99.6452 6.09765 0 0 0 0 0 0 
2769 -0.062301 100.875 6.09765 0 0 0 0 0 0 
2675 2.06812 97.1852 6.09765 0 0 0 0 0 0 
2664 0.647839 97.1852 6.09765 0 0 0 0 0 0 
2849 4.19854 110.715 6.09765 0 0 0 0 0 0 
2848 2.77826 110.715 6.09765 0 0 0 0 0 0 
2842 4.19854 108.255 6.09765 0 0 0 0 0 0 
2841 2.77826 108.255 6.09765 0 0 0 0 0 0 
2840 2.06812 109.485 6.09765 0 0 0 0 0 0 
2835 0.647839 109.485 6.09765 0 0 0 0 0 0 
2828 4.19854 105.795 6.09765 0 0 0 0 0 0 
2827 2.77826 105.795 6.09765 0 0 0 0 0 0 
2826 2.06812 107.025 6.09765 0 0 0 0 0 0 
2817 0.647839 107.025 6.09765 0 0 0 0 0 0 
2816 -0.062301 108.255 6.09765 0 0 0 0 0 0 
2798 -0.062301 105.795 6.09765 0 0 0 0 0 0 
2716 4.19854 113.175 6.09765 0 0 0 0 0 0 
2715 2.77826 113.175 6.09765 0 0 0 0 0 0 
2701 2.06812 111.945 6.09765 0 0 0 0 0 0 
2700 0.647839 111.945 6.09765 0 0 0 0 0 0 
2699 -0.062301 113.175 6.09765 0 0 0 0 0 0 
2688 -0.062301 110.715 6.09765 0 0 0 0 0 0 
2712 -0.062301 115.635 6.09765 0 0 0 0 0 0 
3636 4.19854 120.555 6.09765 0 0 0 0 0 0 
3635 2.77826 120.555 6.09765 0 0 0 0 0 0 
3634 2.06812 121.785 6.09765 0 0 0 0 0 0 
3623 0.647839 121.785 6.09765 0 0 0 0 0 0 
2753 2.06812 119.325 6.09765 0 0 0 0 0 0 
2752 0.647839 119.325 6.09765 0 0 0 0 0 0 
2751 -0.062301 120.555 6.09765 0 0 0 0 0 0 
2745 4.19854 118.095 6.09765 0 0 0 0 0 0 
2744 2.77826 118.095 6.09765 0 0 0 0 0 0 
2731 4.19854 115.635 6.09765 0 0 0 0 0 0 
2730 2.77826 115.635 6.09765 0 0 0 0 0 0 
2729 2.06812 116.865 6.09765 0 0 0 0 0 0 
2728 0.647839 116.865 6.09765 0 0 0 0 0 0 
2727 -0.062301 118.095 6.09765 0 0 0 0 0 0 
2714 2.06812 114.405 6.09765 0 0 0 0 0 0 
2713 0.647839 114.405 6.09765 0 0 0 0 0 0 
129 9.19768 6.37336 6.14093 0.631294 -0.152222 0.00441282 1.47468 -0.648511 0.0698152 
1 10.6288 6.46153 6.16387 -0.342278 0.153521 0.0582831 -0.498666 0.0350116 1.64027 
95 6.3479 3.82383 6.11405 -0.545427 -0.147515 0.108517 -0.292136 -0.0266247 -0.689973 
114 8.48846 5.13632 6.15772 0.157359 0.608025 -0.0396715 0.232925 2.67136 -0.469063 
94 4.90868 3.7052 6.09765 0 0 0 0 0 0 
111 4.90868 6.16519 6.09765 0 0 0 0 0 0 
82 4.90868 1.2452 6.09765 0 0 0 0 0 0 
89 12.8681 0.550449 6.1546 0.354416 -0.0362692 0.0478279 -0.941791 -0.232358 0.727374 
5 19.2699 1.91419 6.22039 0.0474897 0.500719 0.167094 -1.61576 2.217 1.55211 
84 7.18954 0.251122 6.02975 -0.299905 -0.0950499 0.0660559 -0.667912 -0.187148 0.14796 
83 6.33586 1.38138 6.09591 0.675787 -0.0198225 -0.0482424 0.804443 -1.40723 0.126954 
28 17.7846 6.69172 6.2529 0.0436153 0.0246819 -0.0389981 -0.375186 -0.736274 0.493939 
112 6.33818 6.26186 6.0921 -0.364298 -0.0133068 0.0787552 -1.21925 0.657589 -0.0640485 
128 8.47406 7.57407 6.07753 -0.229271 0.400194 -0.00934128 1.25406 1.21508 1.39541 
127 7.0511 7.5022 6.06184 0.174612 -0.234814 0.146846 1.293 1.41276 2.16748 
90 11.5111 0.473201 6.33032 -0.386996 0.113082 -0.0548189 -0.539379 0.267842 -2.37478 
96 7.09014 2.62915 6.13728 -0.658734 -0.354728 -0.0390415 1.36514 -0.650851 -1.28215 
113 7.06808 5.05796 6.14594 -0.0303784 -0.154508 -0.194239 0.0607381 0.856126 -0.84949 
104 17.1685 0.67717 6.62218 -0.43025 0.645036 -0.0889818 -1.38334 -1.52286 1.18455 
97 8.52155 2.73139 6.13467 0.575631 -0.0933182 -0.00188798 0.149246 -1.02323 -0.414882 
98 9.29986 1.55025 6.09287 -0.140608 -0.149509 -0.127281 0.0534403 0.766163 -0.0849271 
107 15.7883 0.647277 6.51235 0.549015 -0.105369 0.0313821 1.39329 -0.206773 0.56573 
3 14.9561 4.2162 6.23271 -0.0894188 -0.225523 0.0920584 -0.359137 0.421574 1.00988 
15 17.8331 4.28841 6.25911 -0.209301 -0.00188225 -0.0167521 -0.216902 -0.0192089 0.350205 
13 13.5035 6.56317 6.20347 -0.389343 0.0870922 -0.0395757 -1.35945 0.183173 -1.72435 
14 15.6649 5.43101 6.1985 -0.174983 -0.00164108 0.13691 -0.0393175 -1.19324 1.01468 
11 19.2491 4.34026 6.24826 -0.388284 -0.539595 0.00644428 -3.10528 -0.187761 -0.0451098 
119 13.5316 4.15695 6.23519 0.475925 -0.319115 -0.135061 2.62148 0.0284407 -1.1524 
121 17.8868 1.8816 6.40103 0.228192 -0.665131 -0.131196 -1.1775 0.88292 -0.490089 
24 19.1982 6.74271 6.25089 0.0267041 -0.338063 -0.0128574 1.8356 0.220871 -0.757125 
85 8.55211 0.368695 5.91286 0.372987 -0.0518003 -0.04224 1.32159 -0.0989939 0.71289 
4 17.1355 3.0644 6.29422 -0.454096 0.194955 0.221701 0.375246 0.930035 1.75545 
2 12.7902 5.339 6.22174 -0.0663187 0.465443 -0.0726247 -0.318795 1.23986 -0.900546 
10 17.0759 5.4757 6.24229 0.384507 -0.0602195 -0.0392863 1.97057 1.37993 1.33402 
106 13.6029 1.7454 6.26306 0.217561 0.0312509 -0.103774 -1.72022 0.514578 1.22633 
101 10.6629 4.04795 6.17547 0.0063625 -0.51712 -0.0354258 -0.512105 0.155362 -2.49434 
9 14.9222 6.62344 6.20457 -0.057227 0.0960339 0.00749285 -2.02715 -1.35325 1.0047 
115 9.24253 3.95292 6.14833 -0.337098 0.0936403 0.0836191 1.40581 -2.07055 0.281484 
118 11.3721 5.27223 6.20081 0.060082 -0.234891 -0.103806 -0.42418 -0.156615 1.43723 
103 14.9994 1.79897 6.34017 -0.124384 0.101505 0.128929 0.874524 0.581631 1.03686 
88 10.6979 1.61973 6.17144 0.0593902 -0.187708 0.125654 3.41839 -0.596825 -2.07573 
120 15.7055 3.0268 6.29964 0.0613586 -0.110076 -0.18302 -1.16169 3.40192 -0.0736356 
102 12.8363 2.93372 6.2125 0.124403 -0.308304 0.029667 -1.46106 -2.56344 1.6179 
105 11.4105 2.84442 6.17805 -0.0702925 0.80661 0.0715973 -1.95279 -0.0705964 -0.214041 
352 17.6555 23.6669 6.13459 0.331529 -0.163295 -0.168232 1.16689 -1.42362 -0.532318 
65 6.31503 18.5183 6.08437 0.69955 -0.0746969 -0.0747272 3.56516 -1.29393 -1.09129 
207 7.0327 19.7582 6.08261 -0.154486 -0.0980816 -0.0345868 -0.915752 0.463574 0.471383 
206 6.32673 20.9872 6.07831 -0.19495 -0.511851 0.0195481 0.03881 -1.95024 -0.890858 
27 15.6322 7.84496 6.21336 -0.284584 0.217718 0.0865763 -0.534665 1.16841 2.2461 
329 14.815 23.6222 6.08409 0.469627 -0.192159 0.125737 -0.331948 -0.718049 -2.75644 
137 4.90868 13.5452 6.09765 0 0 0 0 0 0 
132 4.90868 11.0852 6.09765 0 0 0 0 0 0 
125 4.90868 8.62519 6.09765 0 0 0 0 0 0 
50 4.90868 16.0052 6.09765 0 0 0 0 0 0 
126 6.32595 8.71198 6.08936 0.200922 -0.193282 -0.100864 -0.969137 0.481312 0.456765 
135 8.46971 10.0156 6.05217 -0.243644 0.0632429 0.0928042 0.451371 1.24395 0.305251 
134 7.05265 9.94146 6.07417 -0.124831 0.0556396 0.0797036 -0.847133 0.680496 -0.472507 
133 6.33158 11.1541 6.10219 -0.172766 0.0966754 -0.16691 -2.5342 -2.61613 -0.026791 
332 15.5254 22.4005 6.11015 -0.198793 0.139856 -0.104792 0.445708 0.764491 2.5761 
192 10.562 18.6365 6.1116 0.126069 -0.0452734 -0.134271 0.684482 -0.502698 0.25751 
209 9.15249 18.577 6.07085 0.0150873 0.255334 0.0409469 -0.569933 0.40959 -0.428898 
64 4.90868 18.4652 6.09765 0 0 0 0 0 0 
291 4.90868 23.3852 6.09765 0 0 0 0 0 0 
205 4.90868 20.9252 6.09765 0 0 0 0 0 0 
341 19.0798 23.7089 6.1173 -0.427616 0.115351 0.00747423 -0.160514 0.745408 1.42625 
281 10.5696 21.0842 6.1241 -0.0822917 -0.12133 -0.0582494 0.361731 0.823525 0.0830164 
283 14.8289 18.7496 6.16393 -0.651198 -0.206059 -0.0899417 -0.916934 -0.936505 0.560151 
282 12.6903 19.9136 6.12412 -0.15565 0.168979 -0.0685817 1.00924 0.011878 0.202029 
361 19.7918 24.9328 6.10951 -0.163492 -0.32996 0.0524298 -2.70241 1.3903 0.61101 
312 13.3945 21.1427 6.1218 0.140739 -0.332119 0.0941888 0.786783 -0.11941 -0.53932 
67 8.44585 17.3473 6.04995 -0.187568 0.153596 0.0832336 1.26709 -1.58839 -1.04107 
342 19.7961 22.5018 6.12859 -0.0699161 -0.255238 0.177957 0.378001 0.71492 0.688315 
310 12.6922 22.3535 6.14322 -0.155431 0.502237 -0.138409 1.25369 -1.41154 -0.64798 
287 13.4139 18.7102 6.11219 0.0520997 -0.38398 0.101853 0.326175 0.555935 -0.152146 
286 11.2735 19.8625 6.11669 0.237885 0.161334 0.063662 -0.939573 0.678712 0.543825 
301 14.8031 21.1789 6.12245 0.411496 0.07554 0.0873532 0.371904 0.868958 0.453036 
51 6.32255 16.0581 6.0622 -0.0228733 -0.109536 0.0285389 2.48744 0.709064 -0.977473 
290 19.8158 15.2304 6.15018 0.200498 -0.555317 -0.0491202 -0.552942 -1.24306 -0.549853 
324 19.7855 20.0646 6.17979 0.940412 0.602018 0.0640799 -0.112314 0.264423 -0.200853 
193 12.7046 17.48 6.10387 -0.404482 0.15349 0.109338 0.274844 -1.68178 0.606235 
197 11.2832 17.4276 6.07612 0.243155 -0.242769 0.118846 0.144132 0.631036 -0.625834 
305 17.6623 18.8049 6.16165 0.0441468 -0.212193 -0.0157344 -2.13281 0.782594 0.978985 
322 19.0733 21.2843 6.16518 0.151452 -0.297971 -0.142669 1.03742 0.652805 -0.0104949 
144 9.16138 13.6931 6.04902 0.374475 0.709521 -0.0203133 1.02884 0.166885 -0.721088 
302 16.9388 20.0072 6.15698 0.0897105 0.274701 -0.11817 0.0778789 -1.34724 0.616251 
323 17.6619 21.2243 6.12414 -0.3564 0.466878 0.157121 0.240303 0.140091 -2.24884 
321 16.9365 22.4391 6.11573 0.367313 0.128101 0.062482 -1.07772 0.238128 0.75927 
306 19.7984 17.6349 6.20231 0.218766 0.698117 -0.157465 -0.806443 1.62878 1.26151 
284 16.9512 17.5813 6.14684 0.0863368 0.124736 0.0575918 -1.89299 -1.00515 1.68689 
288 15.5368 17.5392 6.17796 0.18677 -0.13456 -0.17241 -1.97284 1.19595 1.88214 
303 19.0771 18.8546 6.18286 -0.0723684 -0.7398 0.0721795 -1.72994 -1.03862 -1.00809 
311 11.2771 22.3133 6.13081 0.355431 -0.45744 0.0373525 1.5959 0.213861 0.340882 
328 12.6974 24.8054 6.08911 -0.0755548 -0.16162 0.117717 -1.58469 -0.898764 -0.818608 
304 15.5242 19.968 6.1516 0.339642 0.311801 -0.040648 -0.237368 -0.636944 0.711692 
309 10.5731 23.5191 6.12076 -0.340095 0.623726 -0.0497554 0.660384 -0.102924 -1.65257 
320 9.15534 23.4846 6.1215 0.222383 -0.00872215 -0.0533491 -0.424514 -0.541301 1.46025 
319 8.45626 24.7094 6.14349 -0.56514 -0.245798 -0.0269009 -1.97344 -0.925024 0.422902 
295 9.15818 21.0353 6.10176 -0.274333 -0.0114978 -0.083249 0.443408 -0.0244287 -0.169284 
351 15.5339 24.8432 6.07549 -0.192511 0.107578 0.175553 -1.45044 -1.00067 -1.65599 
348 16.9449 24.8818 6.12919 0.0239247 0.174523 -0.223904 -0.155393 1.08038 1.273 
208 8.44689 19.8004 6.06229 0.00636858 0.0443936 0.199639 0.526002 1.60694 0.5521 
294 8.44334 22.2555 6.08557 0.133117 0.0250303 0.0479727 1.35273 0.795618 1.50547 
140 8.4642 12.4714 6.02681 -0.419168 -1.18881 0.274859 -0.207659 -0.132662 -2.71489 
331 13.4124 23.5848 6.11758 -0.639668 -0.0628853 -0.0579636 -1.23931 -0.325619 0.0315647 
35 10.579 13.7518 6.07156 -0.0816704 -0.277042 0.0567739 1.6877 1.04371 -0.204154 
66 7.0345 17.2903 6.05967 -0.349752 0.423884 0.005427 0.0139206 -3.94389 0.0663852 
293 7.03065 22.2198 6.0635 0.0894592 -0.0770316 0.0494546 -1.44551 -1.12343 1.69063 
40 11.3054 12.5387 6.11848 0.139413 0.392833 0.0187083 -0.0495038 -0.320977 -0.274967 
318 7.03339 24.6683 6.14086 0.213078 0.434361 -0.125657 -0.67016 -0.991844 0.71407 
330 11.2807 24.7529 6.1096 -0.019349 0.229605 -0.0266909 0.547837 0.591038 -1.48077 
292 6.32515 23.4424 6.06265 -0.255586 -0.292947 0.258002 -0.412598 0.785447 0.90969 
143 8.43997 14.917 6.0592 0.626494 -0.947658 -0.15601 -1.56851 0.779251 -0.227587 
142 7.04119 14.839 6.03768 -0.724726 0.297278 0.18759 0.615152 0.259576 -0.801347 
139 7.04371 12.3903 6.07637 0.184627 0.0632372 -0.15987 -0.0662434 2.15479 -1.00178 
25 11.3243 10.1076 6.11714 0.315928 0.52349 -0.0813054 0.822985 0.0348489 -2.07687 
196 19.0945 14.0103 6.15876 0.365889 0.058566 0.0633677 3.19437 -0.810815 0.744703 
136 9.19144 8.8093 6.0566 0.413397 -0.182285 0.0808394 0.876109 2.402 1.50794 
12 11.3423 7.69065 6.15195 -0.215403 -0.319865 -0.0603552 -1.7142 -0.559937 1.78967 
7 10.6177 8.88973 6.09125 -0.700285 -0.320145 0.0603134 -1.45187 0.176485 2.04649 
36 12.7252 12.606 6.15286 -0.536574 0.175085 -0.148826 -0.505968 1.4421 0.528297 
198 13.4131 16.2688 6.16788 0.108044 -0.149505 -0.280506 -0.355672 1.52171 0.357503 
60 17.721 11.5467 6.22464 -0.585907 -0.457827 0.0730392 0.159987 -1.30913 1.52079 
8 12.7506 7.7587 6.17865 0.627275 -0.252803 0.0919405 -0.267208 0.158897 0.447811 
52 10.5749 16.1935 6.0693 -0.294153 -0.0842646 -0.0533082 0.0618799 -3.20084 -1.61283 
38 17.0101 10.3148 6.25553 0.379456 0.436486 -0.217576 1.16023 -1.02251 -0.379294 
194 14.8271 16.3158 6.15752 -0.350227 0.553418 0.0757857 0.882265 1.11549 -1.51718 
138 6.32816 13.6048 6.06183 -0.247522 0.0620472 0.0222244 -0.514703 1.33095 0.367294 
20 10.5995 11.3135 6.11663 -0.227675 -0.178956 -0.101797 0.261496 0.454148 0.573157 
141 9.18414 11.2449 6.07422 -0.0748123 0.571181 -0.110857 1.48642 0.613091 1.16747 
59 15.5646 12.6884 6.1752 0.0208736 0.0423669 -0.0625223 0.919275 -0.481175 -2.3741 
55 16.9729 12.7377 6.19791 0.492746 0.329071 0.0642403 2.18033 -0.680737 0.779822 
200 17.6815 13.9671 6.19637 -0.102004 -0.300978 -0.198414 -0.815359 -0.278256 -2.30542 
54 14.8373 13.8901 6.18184 0.133028 0.292684 -0.128512 -2.25193 -1.14441 -0.424454 
37 14.8645 11.4669 6.13367 -0.169354 0.0928026 0.21363 1.80325 -1.86024 -1.47731 
21 12.7432 10.1864 6.13612 -0.530748 -0.427143 0.0271496 0.0778759 -2.97678 1.23178 
199 15.5459 15.123 6.15652 0.0978892 -0.893882 0.0941268 -0.411614 -0.122331 -2.37509 
41 13.4482 11.4084 6.11698 0.413029 -0.188958 0.0963214 -1.26643 -0.553865 0.572163 
58 13.426 13.8339 6.14851 0.0366988 0.167932 0.0875703 -0.936793 1.35039 0.559904 
289 17.6736 16.3747 6.14089 0.146822 0.440706 0.145865 1.31206 -0.701524 -1.37084 
53 12.7013 15.043 6.13705 0.0537829 -0.20832 -0.0137489 -1.39131 -1.37716 -1.16619 
195 16.9556 15.1706 6.17281 0.104528 -0.464108 -0.0972173 2.00907 1.36756 1.4678 
22 14.8838 9.04975 6.22612 0.226668 -0.305711 -0.172835 -1.40752 -0.852442 0.271364 
26 13.459 8.9776 6.19318 0.765646 0.396409 -0.0508435 -0.0338098 1.05357 3.19804 
285 19.0874 16.4216 6.15297 -0.232912 0.264019 0.064692 -2.11173 -0.606107 -1.58905 
42 15.5997 10.2768 6.19849 -0.297634 -0.607847 0.0724801 1.0861 1.29755 -0.246197 
56 19.1284 11.5887 6.24102 0.378965 -0.0312338 -0.186957 -1.2824 0.148097 0.117599 
68 9.1536 16.1346 6.04706 0.623805 0.217438 0.0105762 -1.12885 0.453088 1.0522 
43 17.7536 9.1211 6.23624 -0.0182828 -0.329263 0.202516 1.00995 0.381999 -1.19589 
39 19.1748 9.16853 6.27358 -0.311039 -0.11129 -0.204577 2.06488 0.889913 1.12111 
23 17.0504 7.88595 6.2543 -0.070637 0.598669 -0.116754 -0.166545 0.00128622 1.15443 
57 11.2882 14.9759 6.09248 0.176271 0.36772 -0.00162743 -0.744995 -1.16058 -1.1462 
873 14.8237 43.161 6.11784 -1.26979 0.230741 -0.176458 -0.880522 -0.706959 -0.142762 
274 6.3175 43.0752 6.08341 0.397559 0.138582 0.106639 1.0544 0.357797 -0.167637 
276 8.43977 41.8701 6.09628 0.28537 0.158077 0.0681935 0.276964 -0.237438 -1.22401 
363 11.291 29.6528 6.10652 -0.667494 -0.319878 0.144153 0.283179 1.52379 2.43895 
210 10.5711 30.8652 6.14643 0.107683 0.211228 -0.132447 1.47332 -0.839883 1.23868 
360 9.16573 28.3854 6.1615 -0.153083 0.134634 -0.0689486 -0.605505 0.625367 -1.05478 
340 9.15084 25.9389 6.14667 0.479304 -0.0190406 -0.0422591 -1.2398 -0.546736 1.96772 
248 19.0826 33.4435 6.10145 -0.37737 0.233415 0.0413581 -2.19377 -0.690047 -0.851589 
218 14.8187 30.9502 6.12794 -0.0799003 -0.377371 -0.0387239 2.47943 0.558763 0.470512 
253 19.7968 32.2311 6.10806 0.178443 -0.0685965 0.121925 0.573759 -2.13215 -0.407617 
345 10.5818 28.4159 6.1524 -0.23036 0.67482 -0.171542 1.46836 1.80588 -1.53935 
275 7.03792 41.8513 6.11644 -0.623439 0.430342 -0.163386 -0.1551 1.13231 -0.348226 
327 10.5672 25.9791 6.11351 0.170025 -0.156126 0.0829965 0.586843 -1.0818 -1.13569 
222 13.4056 30.9127 6.11845 -0.106575 0.700531 -0.0697831 -0.806675 0.842891 -0.0300746 
260 6.32553 40.6362 6.10161 -0.371578 -0.47452 -0.115141 0.381657 1.17009 1.04567 
374 9.15772 30.8391 6.14105 -0.088469 0.130844 0.0335443 2.01804 0.377504 -0.578015 
874 16.9306 41.9686 6.03475 0.337484 -0.585954 0.233139 -1.61476 -0.920318 0.385522 
211 12.6934 29.6951 6.0733 0.428441 -0.469498 0.174799 -1.29035 1.08827 2.13644 
785 16.9302 39.5017 6.0789 0.0682533 0.22319 -0.106289 2.9361 1.00551 0.188054 
216 10.5745 33.3167 6.14308 -0.204301 -0.184021 -0.00937716 1.44913 1.39796 -1.07844 
359 8.45222 29.6125 6.14681 0.273444 -0.314751 0.0828687 1.59215 -3.0523 -0.169966 
371 6.31457 33.2457 6.0812 0.358272 0.298764 0.153655 0.27443 0.577642 -1.5801 
878 15.5209 41.9443 6.09302 -0.0101632 -0.504366 0.00813772 1.27267 -0.547543 2.40834 
338 7.03665 27.1313 6.1666 -0.00422304 0.312199 -0.126074 1.8805 -0.447906 -1.75695 
337 6.33243 28.3669 6.13225 -0.384605 -1.13388 0.0203286 -0.358476 -1.72052 -1.47941 
349 11.2885 27.2069 6.13276 0.0730929 -0.5036 -0.11655 0.432512 -1.3193 -0.677326 
270 19.7979 34.6709 6.11391 -0.243219 -0.372451 0.0184773 -0.260904 -0.100423 -0.252861 
789 15.5158 39.4924 6.11467 0.064557 -0.267005 -0.0810888 3.32179 -1.1212 -1.70374 
252 17.6566 33.4068 6.11865 0.493996 0.899776 -0.111394 1.28202 -1.12112 3.05584 
381 9.16247 33.2907 6.15257 -0.22463 0.0946849 -0.131675 -0.105023 -0.287615 0.11522 
221 11.2791 32.0932 6.13202 0.00552593 0.277376 0.0746988 0.0920808 -1.74209 -0.0798931 
339 8.45208 27.1555 6.15666 -0.180678 0.398438 0.0545258 -0.797875 0.423779 -0.365335 
791 19.7766 37.1103 6.10613 -0.263581 -0.341372 -0.0330464 1.07328 1.01093 -0.979596 
373 8.44436 32.0648 6.13009 0.0385205 -0.117825 0.0388599 0.201133 0.562302 -0.84707 
784 14.811 40.709 6.11508 0.214886 0.638577 -0.130559 2.20654 1.99935 -1.70571 
790 17.6405 38.2764 6.05346 -0.0817455 0.301055 0.0954745 -1.71972 -0.600619 -0.78253 
358 7.0439 29.5821 6.14332 -0.159885 0.204659 -0.076621 0.530726 1.46533 0.0298143 
277 9.15276 40.6556 6.07819 0.0173862 -0.308413 0.0149107 1.90135 -0.838355 -0.580417 
385 8.44077 36.9683 6.12586 -0.10716 0.0473632 -0.0712556 -0.0811487 -1.62147 -0.737715 
380 8.45078 34.5155 6.12913 -0.235397 -0.0765287 0.0805817 -0.101306 -0.132664 -2.43408 
386 9.14815 35.7536 6.15465 -0.048567 -0.502484 -0.174302 0.846179 0.682422 1.01403 
269 17.6448 35.8499 6.1089 0.333882 -0.331861 -0.0257177 -0.729148 -0.54832 -1.85537 
799 9.13601 43.0991 6.11198 0.362796 0.209109 0.0727932 -0.449012 -0.470105 -1.22813 
782 10.5576 43.1316 6.1113 -0.170543 -0.657044 -0.0343856 0.18608 -0.178945 -1.77502 
370 4.90868 33.2252 6.09765 0 0 0 0 0 0 
356 4.90868 30.7652 6.09765 0 0 0 0 0 0 
336 4.90868 28.3052 6.09765 0 0 0 0 0 0 
316 4.90868 25.8452 6.09765 0 0 0 0 0 0 
372 7.02386 32.0297 6.1183 0.487629 0.015529 -1.30292e-06 -0.279618 -2.48632 -0.543063 
235 13.4101 33.3634 6.15007 -0.378599 -0.0300806 -0.160533 0.304669 0.49415 -2.23357 
877 13.3913 43.1431 6.08878 0.573633 0.231377 0.0453432 1.20682 0.904665 0.440356 
237 17.6612 30.9828 6.12887 0.125181 -0.204151 -0.197524 -1.7425 2.35081 -0.705423 
232 16.9515 32.1983 6.0992 -0.664709 -0.53522 0.234592 0.701355 0.784606 0.921848 
880 19.7687 39.5546 6.05341 0.476263 -0.483404 -0.00909961 0.341884 2.17171 1.08913 
220 19.0881 28.5705 6.10202 0.00713497 0.19679 -0.0567358 -0.546404 0.413979 -0.581411 
317 6.3273 25.9022 6.14556 -0.144997 -0.525651 -0.114511 -0.170129 -1.69322 -0.478352 
263 14.7971 38.2708 6.10303 0.144422 0.0971198 -0.0638387 -0.392924 0.0500008 -2.30373 
265 19.0668 35.8749 6.11359 -0.0966816 0.495317 -0.0605879 2.6252 -2.33181 0.771845 
219 16.9454 29.7571 6.12643 0.328707 0.0403326 -0.0658103 1.42805 -0.491991 1.77791 
212 14.8212 28.5132 6.07329 -0.266238 -0.584323 0.0764694 0.38237 1.91831 -0.339668 
223 15.53 29.7297 6.11612 0.217795 0.260711 -0.0261178 -0.839648 0.00137081 -1.51761 
364 13.4046 28.4675 6.0791 0.244559 0.725741 -0.0941634 -1.40583 -1.32943 -1.5203 
213 16.9412 27.3325 6.10097 0.404525 -0.726084 -0.100788 -1.82402 -0.235506 -0.914044 
264 16.9182 37.0503 6.07523 0.353636 0.843688 -0.0065482 0.21564 -0.610638 0.0376907 
214 19.0661 26.1371 6.11794 0.620565 0.326022 -0.0658742 0.545984 2.68736 0.161208 
225 19.8054 27.3501 6.1053 -0.579113 0.429515 -0.0456344 1.21402 -1.25637 -0.18163 
268 15.506 37.0526 6.06476 0.108552 -0.0246852 0.0396152 0.412387 -0.876145 0.842222 
233 19.0785 31.012 6.09565 -0.0582548 0.00762031 0.0600394 -1.86249 1.16021 1.17669 
224 17.6695 28.5381 6.09218 -0.148891 0.498479 0.103203 -2.62394 -0.207374 -0.7972 
786 19.0596 38.3267 6.05884 -0.152763 -0.259781 0.0940894 2.65598 0.517596 0.728618 
378 6.31598 35.7035 6.09005 0.539287 0.0394038 -0.0264801 -2.33465 -2.15689 0.557997 
379 7.028 34.474 6.09937 0.129779 0.277968 0.00758724 -0.629102 -0.634018 0.0972577 
389 9.1438 38.1964 6.09358 0.0479854 0.113108 0.111491 -0.276431 2.04592 -0.450046 
787 11.2662 41.898 6.08715 0.347414 0.58534 -0.0832667 0.95623 -1.11324 -1.06479 
249 11.2637 36.9971 6.11103 0.216822 0.164749 -0.00136897 0.113288 0.368625 1.91411 
229 10.5579 35.7739 6.1386 0.477049 -0.589722 -0.000652242 -0.803544 -1.57481 0.0754941 
259 4.90868 40.6052 6.09765 0 0 0 0 0 0 
250 13.3892 35.7972 6.0838 0.161338 0.236052 0.0627859 2.0674 0.96092 -0.101957 
388 8.44472 39.4225 6.10101 -0.189179 0.189272 -0.21881 0.130187 0.0339677 0.0584149 
273 4.90868 43.0652 6.09765 0 0 0 0 0 0 
234 11.2803 34.5396 6.13716 -0.432306 0.732767 0.0484307 0.415593 0.350502 -1.29898 
382 4.90868 38.1452 6.09765 0 0 0 0 0 0 
377 4.90868 35.6852 6.09765 0 0 0 0 0 0 
262 12.6744 39.478 6.08599 0.466733 -0.0237283 0.019674 -0.761335 -0.116784 -0.863277 
244 10.5559 38.2208 6.09631 0.0761436 -0.0858947 0.0179427 1.61277 -1.24498 -0.0652217 
267 13.3827 38.2567 6.09402 -0.0143225 -0.405381 -0.0306948 -1.12088 1.07739 1.42416 
783 12.6855 41.9202 6.07081 -0.113705 -0.0585303 0.0736776 -0.462062 -1.12222 -1.21332 