ITEM: TIMESTEP
600
ITEM: NUMBER OF ATOMS
4798
ITEM: BOX BOUNDS ff ff ff
-10.3577 110.358
-10.0998 131.9
-100.402 112.598
ITEM: ATOMS id x y z fx fy fz vx vy vz 
72 -0.062301 2.4752 6.09765 0 0 0 0 0 0 
110 4.19854 7.39519 6.09765 0 0 0 0 0 0 
109 2.77826 7.39519 6.09765 0 0 0 0 0 0 
93 4.19854 4.9352 6.09765 0 0 0 0 0 0 
92 2.77826 4.9352 6.09765 0 0 0 0 0 0 
91 2.06812 6.16519 6.09765 0 0 0 0 0 0 
87 0.647839 6.16519 6.09765 0 0 0 0 0 0 
86 -0.062301 7.39519 6.09765 0 0 0 0 0 0 
81 4.19854 2.4752 6.09765 0 0 0 0 0 0 
80 2.77826 2.4752 6.09765 0 0 0 0 0 0 
79 2.06812 3.7052 6.09765 0 0 0 0 0 0 
78 0.647839 3.7052 6.09765 0 0 0 0 0 0 
77 -0.062301 4.9352 6.09765 0 0 0 0 0 0 
76 4.19854 0.015197 6.09765 0 0 0 0 0 0 
75 2.77826 0.015197 6.09765 0 0 0 0 0 0 
74 2.06812 1.2452 6.09765 0 0 0 0 0 0 
73 0.647839 1.2452 6.09765 0 0 0 0 0 0 
6 -0.062301 12.3152 6.09765 0 0 0 0 0 0 
131 4.19854 12.3152 6.09765 0 0 0 0 0 0 
130 2.77826 12.3152 6.09765 0 0 0 0 0 0 
124 4.19854 9.85519 6.09765 0 0 0 0 0 0 
123 2.77826 9.85519 6.09765 0 0 0 0 0 0 
122 2.06812 11.0852 6.09765 0 0 0 0 0 0 
117 0.647839 11.0852 6.09765 0 0 0 0 0 0 
108 2.06812 8.62519 6.09765 0 0 0 0 0 0 
100 0.647839 8.62519 6.09765 0 0 0 0 0 0 
99 -0.062301 9.85519 6.09765 0 0 0 0 0 0 
34 4.19854 14.7752 6.09765 0 0 0 0 0 0 
33 2.77826 14.7752 6.09765 0 0 0 0 0 0 
32 2.06812 16.0052 6.09765 0 0 0 0 0 0 
31 0.647839 16.0052 6.09765 0 0 0 0 0 0 
19 2.06812 13.5452 6.09765 0 0 0 0 0 0 
18 0.647839 13.5452 6.09765 0 0 0 0 0 0 
17 -0.062301 14.7752 6.09765 0 0 0 0 0 0 
300 4.19854 24.6152 6.09765 0 0 0 0 0 0 
299 2.77826 24.6152 6.09765 0 0 0 0 0 0 
204 4.19854 22.1552 6.09765 0 0 0 0 0 0 
203 2.77826 22.1552 6.09765 0 0 0 0 0 0 
202 2.06812 23.3852 6.09765 0 0 0 0 0 0 
191 0.647839 23.3852 6.09765 0 0 0 0 0 0 
190 -0.062301 24.6152 6.09765 0 0 0 0 0 0 
71 2.06812 20.9252 6.09765 0 0 0 0 0 0 
70 0.647839 20.9252 6.09765 0 0 0 0 0 0 
69 -0.062301 22.1552 6.09765 0 0 0 0 0 0 
63 4.19854 19.6952 6.09765 0 0 0 0 0 0 
62 2.77826 19.6952 6.09765 0 0 0 0 0 0 
49 4.19854 17.2352 6.09765 0 0 0 0 0 0 
48 2.77826 17.2352 6.09765 0 0 0 0 0 0 
47 2.06812 18.4652 6.09765 0 0 0 0 0 0 
46 0.647839 18.4652 6.09765 0 0 0 0 0 0 
45 -0.062301 19.6952 6.09765 0 0 0 0 0 0 
30 -0.062301 17.2352 6.09765 0 0 0 0 0 0 
355 4.19854 31.9952 6.09765 0 0 0 0 0 0 
354 2.77826 31.9952 6.09765 0 0 0 0 0 0 
353 2.06812 33.2252 6.09765 0 0 0 0 0 0 
344 0.647839 33.2252 6.09765 0 0 0 0 0 0 
335 4.19854 29.5352 6.09765 0 0 0 0 0 0 
334 2.77826 29.5352 6.09765 0 0 0 0 0 0 
333 2.06812 30.7652 6.09765 0 0 0 0 0 0 
326 0.647839 30.7652 6.09765 0 0 0 0 0 0 
325 -0.062301 31.9952 6.09765 0 0 0 0 0 0 
315 4.19854 27.0752 6.09765 0 0 0 0 0 0 
314 2.77826 27.0752 6.09765 0 0 0 0 0 0 
313 2.06812 28.3052 6.09765 0 0 0 0 0 0 
308 0.647839 28.3052 6.09765 0 0 0 0 0 0 
307 -0.062301 29.5352 6.09765 0 0 0 0 0 0 
298 2.06812 25.8452 6.09765 0 0 0 0 0 0 
297 0.647839 25.8452 6.09765 0 0 0 0 0 0 
296 -0.062301 27.0752 6.09765 0 0 0 0 0 0 
215 -0.062301 36.9152 6.09765 0 0 0 0 0 0 
376 4.19854 36.9152 6.09765 0 0 0 0 0 0 
375 2.77826 36.9152 6.09765 0 0 0 0 0 0 
369 4.19854 34.4552 6.09765 0 0 0 0 0 0 
368 2.77826 34.4552 6.09765 0 0 0 0 0 0 
367 2.06812 35.6852 6.09765 0 0 0 0 0 0 
362 0.647839 35.6852 6.09765 0 0 0 0 0 0 
343 -0.062301 34.4552 6.09765 0 0 0 0 0 0 
258 4.19854 41.8352 6.09765 0 0 0 0 0 0 
257 2.77826 41.8352 6.09765 0 0 0 0 0 0 
256 2.06812 43.0652 6.09765 0 0 0 0 0 0 
255 0.647839 43.0652 6.09765 0 0 0 0 0 0 
243 4.19854 39.3752 6.09765 0 0 0 0 0 0 
242 2.77826 39.3752 6.09765 0 0 0 0 0 0 
241 2.06812 40.6052 6.09765 0 0 0 0 0 0 
240 0.647839 40.6052 6.09765 0 0 0 0 0 0 
239 -0.062301 41.8352 6.09765 0 0 0 0 0 0 
228 2.06812 38.1452 6.09765 0 0 0 0 0 0 
227 0.647839 38.1452 6.09765 0 0 0 0 0 0 
226 -0.062301 39.3752 6.09765 0 0 0 0 0 0 
254 -0.062301 44.2952 6.09765 0 0 0 0 0 0 
905 4.19854 51.6752 6.09765 0 0 0 0 0 0 
904 2.77826 51.6752 6.09765 0 0 0 0 0 0 
890 4.19854 49.2152 6.09765 0 0 0 0 0 0 
889 2.77826 49.2152 6.09765 0 0 0 0 0 0 
888 2.06812 50.4452 6.09765 0 0 0 0 0 0 
887 0.647839 50.4452 6.09765 0 0 0 0 0 0 
886 -0.062301 51.6752 6.09765 0 0 0 0 0 0 
794 4.19854 46.7552 6.09765 0 0 0 0 0 0 
793 2.77826 46.7552 6.09765 0 0 0 0 0 0 
792 2.06812 47.9852 6.09765 0 0 0 0 0 0 
781 0.647839 47.9852 6.09765 0 0 0 0 0 0 
780 -0.062301 49.2152 6.09765 0 0 0 0 0 0 
280 2.06812 45.5252 6.09765 0 0 0 0 0 0 
279 0.647839 45.5252 6.09765 0 0 0 0 0 0 
278 -0.062301 46.7552 6.09765 0 0 0 0 0 0 
272 4.19854 44.2952 6.09765 0 0 0 0 0 0 
271 2.77826 44.2952 6.09765 0 0 0 0 0 0 
959 4.19854 59.0552 6.09765 0 0 0 0 0 0 
958 2.77826 59.0552 6.09765 0 0 0 0 0 0 
957 2.06812 60.2852 6.09765 0 0 0 0 0 0 
952 0.647839 60.2852 6.09765 0 0 0 0 0 0 
945 4.19854 56.5952 6.09765 0 0 0 0 0 0 
944 2.77826 56.5952 6.09765 0 0 0 0 0 0 
943 2.06812 57.8252 6.09765 0 0 0 0 0 0 
934 0.647839 57.8252 6.09765 0 0 0 0 0 0 
933 -0.062301 59.0552 6.09765 0 0 0 0 0 0 
925 4.19854 54.1352 6.09765 0 0 0 0 0 0 
924 2.77826 54.1352 6.09765 0 0 0 0 0 0 
923 2.06812 55.3652 6.09765 0 0 0 0 0 0 
916 0.647839 55.3652 6.09765 0 0 0 0 0 0 
915 -0.062301 56.5952 6.09765 0 0 0 0 0 0 
903 2.06812 52.9052 6.09765 0 0 0 0 0 0 
898 0.647839 52.9052 6.09765 0 0 0 0 0 0 
897 -0.062301 54.1352 6.09765 0 0 0 0 0 0 
805 -0.062301 61.5152 6.09765 0 0 0 0 0 0 
966 4.19854 61.5152 6.09765 0 0 0 0 0 0 
965 2.77826 61.5152 6.09765 0 0 0 0 0 0 
862 4.19854 68.8952 6.09765 0 0 0 0 0 0 
861 2.77826 68.8952 6.09765 0 0 0 0 0 0 
848 4.19854 66.4352 6.09765 0 0 0 0 0 0 
847 2.77826 66.4352 6.09765 0 0 0 0 0 0 
846 2.06812 67.6652 6.09765 0 0 0 0 0 0 
845 0.647839 67.6652 6.09765 0 0 0 0 0 0 
844 -0.062301 68.8952 6.09765 0 0 0 0 0 0 
833 4.19854 63.9752 6.09765 0 0 0 0 0 0 
832 2.77826 63.9752 6.09765 0 0 0 0 0 0 
831 2.06812 65.2052 6.09765 0 0 0 0 0 0 
830 0.647839 65.2052 6.09765 0 0 0 0 0 0 
829 -0.062301 66.4352 6.09765 0 0 0 0 0 0 
818 2.06812 62.7452 6.09765 0 0 0 0 0 0 
817 0.647839 62.7452 6.09765 0 0 0 0 0 0 
816 -0.062301 63.9752 6.09765 0 0 0 0 0 0 
1828 4.19854 76.2752 6.09765 0 0 0 0 0 0 
1827 2.77826 76.2752 6.09765 0 0 0 0 0 0 
1826 2.06812 77.5052 6.09765 0 0 0 0 0 0 
1821 0.647839 77.5052 6.09765 0 0 0 0 0 0 
1813 4.19854 73.8152 6.09765 0 0 0 0 0 0 
1812 2.77826 73.8152 6.09765 0 0 0 0 0 0 
1811 2.06812 75.0452 6.09765 0 0 0 0 0 0 
1810 0.647839 75.0452 6.09765 0 0 0 0 0 0 
1809 -0.062301 76.2752 6.09765 0 0 0 0 0 0 
1717 4.19854 71.3552 6.09765 0 0 0 0 0 0 
1716 2.77826 71.3552 6.09765 0 0 0 0 0 0 
1715 2.06812 72.5852 6.09765 0 0 0 0 0 0 
1704 0.647839 72.5852 6.09765 0 0 0 0 0 0 
1703 -0.062301 73.8152 6.09765 0 0 0 0 0 0 
870 2.06812 70.1252 6.09765 0 0 0 0 0 0 
869 0.647839 70.1252 6.09765 0 0 0 0 0 0 
868 -0.062301 71.3552 6.09765 0 0 0 0 0 0 
1728 -0.062301 86.1152 6.09765 0 0 0 0 0 0 
1889 4.19854 86.1152 6.09765 0 0 0 0 0 0 
1888 2.77826 86.1152 6.09765 0 0 0 0 0 0 
1882 4.19854 83.6552 6.09765 0 0 0 0 0 0 
1881 2.77826 83.6552 6.09765 0 0 0 0 0 0 
1880 2.06812 84.8852 6.09765 0 0 0 0 0 0 
1875 0.647839 84.8852 6.09765 0 0 0 0 0 0 
1868 4.19854 81.1952 6.09765 0 0 0 0 0 0 
1867 2.77826 81.1952 6.09765 0 0 0 0 0 0 
1866 2.06812 82.4252 6.09765 0 0 0 0 0 0 
1857 0.647839 82.4252 6.09765 0 0 0 0 0 0 
1856 -0.062301 83.6552 6.09765 0 0 0 0 0 0 
1848 4.19854 78.7352 6.09765 0 0 0 0 0 0 
1847 2.77826 78.7352 6.09765 0 0 0 0 0 0 
1846 2.06812 79.9652 6.09765 0 0 0 0 0 0 
1839 0.647839 79.9652 6.09765 0 0 0 0 0 0 
1838 -0.062301 81.1952 6.09765 0 0 0 0 0 0 
1820 -0.062301 78.7352 6.09765 0 0 0 0 0 0 
1741 2.06812 87.3452 6.09765 0 0 0 0 0 0 
1740 0.647839 87.3452 6.09765 0 0 0 0 0 0 
2677 4.19854 95.9552 6.09765 0 0 0 0 0 0 
2676 2.77826 95.9552 6.09765 0 0 0 0 0 0 
1793 2.06812 94.7252 6.09765 0 0 0 0 0 0 
1792 0.647839 94.7252 6.09765 0 0 0 0 0 0 
1791 -0.062301 95.9552 6.09765 0 0 0 0 0 0 
1785 4.19854 93.4952 6.09765 0 0 0 0 0 0 
1784 2.77826 93.4952 6.09765 0 0 0 0 0 0 
1771 4.19854 91.0352 6.09765 0 0 0 0 0 0 
1770 2.77826 91.0352 6.09765 0 0 0 0 0 0 
1769 2.06812 92.2652 6.09765 0 0 0 0 0 0 
1768 0.647839 92.2652 6.09765 0 0 0 0 0 0 
1767 -0.062301 93.4952 6.09765 0 0 0 0 0 0 
1756 4.19854 88.5752 6.09765 0 0 0 0 0 0 
1755 2.77826 88.5752 6.09765 0 0 0 0 0 0 
1754 2.06812 89.8052 6.09765 0 0 0 0 0 0 
1753 0.647839 89.8052 6.09765 0 0 0 0 0 0 
1752 -0.062301 91.0352 6.09765 0 0 0 0 0 0 
1739 -0.062301 88.5752 6.09765 0 0 0 0 0 0 
2663 -0.062301 98.4152 6.09765 0 0 0 0 0 0 
2808 4.19854 103.335 6.09765 0 0 0 0 0 0 
2807 2.77826 103.335 6.09765 0 0 0 0 0 0 
2806 2.06812 104.565 6.09765 0 0 0 0 0 0 
2799 0.647839 104.565 6.09765 0 0 0 0 0 0 
2788 4.19854 100.875 6.09765 0 0 0 0 0 0 
2787 2.77826 100.875 6.09765 0 0 0 0 0 0 
2786 2.06812 102.105 6.09765 0 0 0 0 0 0 
2781 0.647839 102.105 6.09765 0 0 0 0 0 0 
2780 -0.062301 103.335 6.09765 0 0 0 0 0 0 
2773 4.19854 98.4152 6.09765 0 0 0 0 0 0 
2772 2.77826 98.4152 6.09765 0 0 0 0 0 0 
2771 2.06812 99.6452 6.09765 0 0 0 0 0 0 
2770 0.647839 99.6452 6.09765 0 0 0 0 0 0 
2769 -0.062301 100.875 6.09765 0 0 0 0 0 0 
2675 2.06812 97.1852 6.09765 0 0 0 0 0 0 
2664 0.647839 97.1852 6.09765 0 0 0 0 0 0 
2849 4.19854 110.715 6.09765 0 0 0 0 0 0 
2848 2.77826 110.715 6.09765 0 0 0 0 0 0 
2842 4.19854 108.255 6.09765 0 0 0 0 0 0 
2841 2.77826 108.255 6.09765 0 0 0 0 0 0 
2840 2.06812 109.485 6.09765 0 0 0 0 0 0 
2835 0.647839 109.485 6.09765 0 0 0 0 0 0 
2828 4.19854 105.795 6.09765 0 0 0 0 0 0 
2827 2.77826 105.795 6.09765 0 0 0 0 0 0 
2826 2.06812 107.025 6.09765 0 0 0 0 0 0 
2817 0.647839 107.025 6.09765 0 0 0 0 0 0 
2816 -0.062301 108.255 6.09765 0 0 0 0 0 0 
2798 -0.062301 105.795 6.09765 0 0 0 0 0 0 
2716 4.19854 113.175 6.09765 0 0 0 0 0 0 
2715 2.77826 113.175 6.09765 0 0 0 0 0 0 
2701 2.06812 111.945 6.09765 0 0 0 0 0 0 
2700 0.647839 111.945 6.09765 0 0 0 0 0 0 
2699 -0.062301 113.175 6.09765 0 0 0 0 0 0 
2688 -0.062301 110.715 6.09765 0 0 0 0 0 0 
2712 -0.062301 115.635 6.09765 0 0 0 0 0 0 
3636 4.19854 120.555 6.09765 0 0 0 0 0 0 
3635 2.77826 120.555 6.09765 0 0 0 0 0 0 
3634 2.06812 121.785 6.09765 0 0 0 0 0 0 
3623 0.647839 121.785 6.09765 0 0 0 0 0 0 
2753 2.06812 119.325 6.09765 0 0 0 0 0 0 
2752 0.647839 119.325 6.09765 0 0 0 0 0 0 
2751 -0.062301 120.555 6.09765 0 0 0 0 0 0 
2745 4.19854 118.095 6.09765 0 0 0 0 0 0 
2744 2.77826 118.095 6.09765 0 0 0 0 0 0 
2731 4.19854 115.635 6.09765 0 0 0 0 0 0 
2730 2.77826 115.635 6.09765 0 0 0 0 0 0 
2729 2.06812 116.865 6.09765 0 0 0 0 0 0 
2728 0.647839 116.865 6.09765 0 0 0 0 0 0 
2727 -0.062301 118.095 6.09765 0 0 0 0 0 0 
2714 2.06812 114.405 6.09765 0 0 0 0 0 0 
2713 0.647839 114.405 6.09765 0 0 0 0 0 0 
1 10.6175 6.45527 6.12171 0.0792427 0.0681687 -0.0180614 -0.006446 -0.580448 -0.734688 
129 9.19942 6.37279 6.11675 -0.0848414 -0.0122231 0.0282532 0.250743 1.25094 0.499683 
128 8.46504 7.57685 6.1031 0.139562 -0.0649445 0.0335723 0.151464 0.205288 -0.175874 
127 7.05027 7.48956 6.11032 -0.0809044 0.0939043 -0.0931375 -0.480778 -0.228909 0.35296 
121 17.8858 1.88836 5.8858 -0.0721639 0.226789 0.00554639 0.0288552 -0.254731 -1.20127 
120 15.6951 3.02364 6.04543 0.0569566 -0.354272 -0.023948 0.490062 0.823611 0.16845 
119 13.5298 4.14136 6.10182 -0.1386 0.0513062 -0.0522418 0.173481 -0.62246 0.0823172 
118 11.3579 5.26079 6.11984 0.0255634 -0.158905 -0.00754797 -0.1918 -0.134027 -1.04724 
115 9.22622 3.94304 6.12493 0.0616423 0.174082 -0.0946877 0.0599798 0.307115 -0.173936 
114 8.48346 5.1397 6.1172 -0.0361444 -0.0742749 0.000215534 0.313637 0.0717115 -0.427889 
113 7.06211 5.04318 6.10869 -0.042728 0.0974276 -0.0128321 0.0193772 -0.110646 0.575057 
112 6.33205 6.25249 6.10602 -0.0914607 -0.122363 0.00688456 0.429975 0.0123466 0.201264 
111 4.90868 6.16519 6.09765 0 0 0 0 0 0 
107 15.8064 0.636116 6.02035 -0.0333855 -0.0152672 -0.036846 0.252829 0.347572 -0.0879487 
106 13.6072 1.73036 6.09834 -0.138112 -0.031231 0.0241062 -0.153683 0.351744 0.28649 
105 11.4037 2.84839 6.07623 0.0330901 -0.22599 0.0144976 0.136842 -0.0800007 -0.19771 
104 17.1494 0.698963 5.74795 0.07404 -0.0819992 -0.0717166 -0.185434 0.651924 -2.345 
103 14.9979 1.78732 6.04374 0.121312 0.235269 0.0772149 0.1171 0.023365 0.325939 
102 12.8335 2.91557 6.1017 0.0408135 -0.0728063 -0.00444551 -0.14426 -0.279897 -0.0106147 
101 10.6484 4.03176 6.10231 0.0365419 0.147875 0.0200435 -0.575323 0.0354739 -0.448289 
98 9.30062 1.52862 6.10776 0.0132411 0.151502 -0.0281086 -0.0131763 -0.0341132 -0.863778 
97 8.51927 2.71261 6.11163 0.0494977 -0.0770104 0.069011 -0.898217 0.273011 -0.558161 
96 7.07753 2.6101 6.11092 0.00619078 -0.0392491 -0.0319314 0.643463 0.0780135 -0.0146734 
95 6.33766 3.80615 6.10833 -0.124536 0.139063 -0.059113 0.134897 0.0102492 -0.687852 
94 4.90868 3.7052 6.09765 0 0 0 0 0 0 
90 11.5196 0.472769 5.92805 0.159557 -0.0757045 0.060459 0.417755 0.954571 -0.514317 
89 12.8746 0.528577 6.17132 -0.0679546 0.0378115 -0.018803 -0.20327 0.740098 1.79789 
88 10.6993 1.61258 6.04531 0.0284774 0.0705673 -0.0398054 -0.00768795 0.156826 -0.823015 
85 8.56101 0.332275 6.17428 0.0657929 -0.0956426 0.0272938 -0.62152 0.336571 -0.427685 
84 7.19064 0.231053 6.10525 0.0150561 -0.0820433 -0.0515307 -0.573504 -0.187838 0.102277 
83 6.34732 1.36501 6.11076 -0.235407 0.0332976 -0.0221978 -0.0263153 0.299551 0.0680323 
82 4.90868 1.2452 6.09765 0 0 0 0 0 0 
28 17.7692 6.7062 6.09823 0.0726321 0.12784 -0.05054 0.296931 -0.291253 0.140014 
2 12.7787 5.33017 6.11775 0.0507773 0.104267 0.0190546 -0.0156824 0.297058 0.0051929 
24 19.1866 6.76074 6.107 -0.101512 -0.267625 0.0206763 0.120063 -0.497145 -0.194492 
3 14.9429 4.20765 6.06981 0.238771 0.0924043 0.125493 -0.404997 -0.519172 0.059303 
15 17.8127 4.30015 6.0299 0.0611193 -0.0726859 0.0368848 0.725179 -0.321884 -0.260319 
14 15.6523 5.42791 6.0935 -0.226473 0.0758783 -0.0632475 0.121962 0.778928 0.455886 
13 13.49 6.55562 6.11767 -0.119028 0.0133659 0.0103227 -0.306394 0.263363 0.532039 
4 17.1186 3.07593 5.97865 0.112368 -0.0502466 -0.0204171 -0.153273 0.537006 -0.219872 
11 19.2286 4.34569 6.03535 -0.14035 0.0763276 0.00780365 0.220385 0.00946996 -0.869838 
10 17.0657 5.48667 6.07587 0.106868 0.0485573 0.0427474 -0.605077 0.196133 -0.14515 
9 14.907 6.62162 6.09954 0.0843448 -0.0690616 0.0183292 0.391292 -0.317358 0.202118 
5 19.2769 1.93229 5.92848 -0.124117 -0.0394808 -0.0274499 -0.374761 -0.341659 -1.17018 
7 10.6024 8.88346 6.11433 -0.0757873 0.0990425 0.0148389 0.151183 -0.279615 0.419954 
289 17.681 16.3949 6.11635 0.0210312 -0.143127 0.0112416 -0.0895483 0.118634 0.443976 
285 19.0934 16.4388 6.11404 0.0258492 0.0249601 -0.02922 -0.0798174 0.323662 -0.390143 
200 17.7013 13.9652 6.12622 -0.186343 0.106198 -0.05941 -0.0602772 -0.41319 -0.113726 
199 15.5594 15.1201 6.13639 -0.0549356 -0.219723 -0.0807555 -0.0479278 0.102762 0.63263 
198 13.4249 16.2699 6.11717 -0.200672 -0.127717 -0.0955605 0.085413 -0.126416 0.241801 
196 19.113 14.0126 6.11226 -0.0755892 0.0115286 -0.000988553 -0.405907 0.301446 0.134498 
195 16.9734 15.1711 6.12648 -0.014151 0.00185725 -0.0153196 0.0431472 0.883464 0.354656 
194 14.8349 16.3261 6.10292 0.0378935 -0.0819052 0.0837113 -0.195112 0.168297 0.970135 
144 9.16749 13.6891 6.1091 -0.175169 -0.0647039 -0.031515 0.333647 0.146488 0.0693818 
143 8.44821 14.9011 6.08808 -0.0596217 -0.036673 0.0192269 0.542692 0.533563 0.567636 
142 7.03273 14.845 6.08151 0.107669 -0.207161 0.0665398 0.185199 -0.166636 0.230191 
141 9.17409 11.2484 6.1305 0.0524872 -0.135617 -0.0268737 -0.0904619 -0.200733 0.206219 
140 8.452 12.4565 6.12431 0.056147 0.0882084 -0.0200557 -0.399346 0.12155 0.472436 
139 7.03759 12.3896 6.10481 -0.00432901 0.0770467 0.0533427 -0.397363 -0.46504 0.256021 
138 6.32338 13.6074 6.09244 -0.00661221 -0.0312264 0.00114971 0.248828 0.268687 -0.134612 
137 4.90868 13.5452 6.09765 0 0 0 0 0 0 
136 9.18218 8.80911 6.10568 0.0737633 0.00821222 0.0783459 -0.367105 -0.331636 -0.974441 
135 8.45715 10.0183 6.11571 0.112904 -0.0788032 0.0121209 -0.352039 0.536185 0.138234 
134 7.04278 9.94183 6.1108 -0.131459 -0.140552 -0.0567577 -0.194004 0.528377 0.427118 
133 6.32315 11.1547 6.10822 0.0386211 0.00351343 0.0127404 -0.0158149 0.771691 -0.627657 
132 4.90868 11.0852 6.09765 0 0 0 0 0 0 
126 6.32671 8.70203 6.09766 0.0077399 0.0440273 0.0985261 0.28635 0.40521 -0.373509 
125 4.90868 8.62519 6.09765 0 0 0 0 0 0 
68 9.15957 16.1297 6.0943 0.0162462 0.158456 0.0170289 0.385009 0.429479 0.116381 
60 17.7147 11.5409 6.1178 0.00365392 -0.00973906 -0.0261813 0.302202 0.286777 -0.321007 
59 15.5737 12.6851 6.13406 -0.0538047 0.133507 -0.052502 -0.313381 -0.207882 -0.361526 
58 13.4317 13.8327 6.11948 0.098383 0.100609 -0.00206199 0.15385 -0.0145171 0.102074 
57 11.2947 14.983 6.11523 -0.0350841 -0.11994 -0.0287369 -0.186421 -0.233215 0.222491 
56 19.1277 11.5904 6.10733 -0.0118015 0.0857273 -0.00840965 -0.225196 0.397783 -0.538656 
55 16.9886 12.7461 6.12457 -0.0947574 -0.160436 0.047759 -0.544539 -0.475228 0.132072 
54 14.8475 13.8902 6.13009 0.00403453 0.179028 -0.0131939 0.353956 -0.00220994 -0.454416 
53 12.7091 15.0428 6.11861 0.105374 0.012411 -0.0541353 0.366154 0.708455 -0.140723 
52 10.5726 16.1927 6.10609 0.0747622 -0.131713 -0.0258328 0.496132 -0.726794 0.0815738 
51 6.32071 16.0605 6.08828 0.00434587 0.0477208 0.01961 -0.506783 0.403352 -0.397574 
50 4.90868 16.0052 6.09765 0 0 0 0 0 0 
43 17.7397 9.12026 6.11211 -0.0201885 0.137601 -0.0336822 0.261849 0.258839 0.11924 
42 15.5878 10.2611 6.1089 0.103339 0.17131 0.0374508 -0.125989 -0.814944 0.137194 
41 13.4442 11.4001 6.12468 0.0268315 0.154878 -0.0619094 -0.555391 -0.470101 0.593382 
40 11.3036 12.5433 6.1254 0.0386586 0.0524735 -0.0526555 0.0887657 0.0108186 0.138335 
39 19.1551 9.17553 6.11178 -0.0652651 -0.102554 0.0363981 -0.039431 0.398004 0.186818 
38 17.0036 10.3205 6.10575 0.0818664 -0.0884177 0.0243548 -0.29286 -0.161696 0.0869371 
37 14.8576 11.465 6.12202 0.108818 -0.159214 0.0467829 0.0926117 0.0461252 -0.799385 
36 12.7204 12.6082 6.10976 -0.180043 -0.102753 0.142572 -0.0034653 -0.221864 0.704531 
35 10.5803 13.7524 6.11675 0.09427 0.0499117 -0.0194342 0.0771847 0.172334 0.0385445 
26 13.4626 8.97719 6.12386 0.138639 -0.0317599 -0.0705391 -0.548401 0.262799 -0.358037 
25 11.3227 10.1098 6.12758 -0.384943 -0.141359 0.0285244 -0.0315408 0.608081 0.369165 
22 14.8787 9.04101 6.09685 -0.0553767 -0.0880662 0.057737 -0.187335 0.594963 -0.510832 
21 12.7336 10.1769 6.12893 0.0207737 0.034192 -0.0630147 0.127467 0.374916 -0.0664536 
20 10.5918 11.3128 6.12976 0.0167717 0.115956 0.000475259 0.0739151 -0.379691 0.527883 
290 19.819 15.2336 6.11242 0.0496404 -9.65429e-06 -0.0374436 -0.151811 0.470223 0.360717 
27 15.6129 7.84331 6.08857 0.189967 -0.00785708 0.0789847 0.0754576 0.0416754 0.0881908 
23 17.0321 7.90283 6.09484 -0.185105 -0.135676 -0.00157764 0.277651 -0.0656971 0.556342 
12 11.332 7.68179 6.12174 0.0352081 -0.102203 0.0145862 0.189704 0.528461 0.481034 
8 12.7507 7.75416 6.11761 0.0374522 -0.127079 0.043555 -0.290394 -0.228328 0.321832 
352 17.66 23.6856 6.11298 0.0478125 -0.0586634 -0.0181741 0.0821306 -0.672411 0.805307 
351 15.5244 24.8524 6.09979 0.0732412 -0.028473 0.063844 -0.125882 0.533526 0.108315 
348 16.9404 24.8945 6.10978 -0.131417 0.0228352 -0.0451755 -0.0440988 0.139854 0.347203 
341 19.0741 23.7258 6.11228 0.0103498 -0.0727234 0.00123937 -0.134872 0.347961 0.302397 
332 15.5316 22.4181 6.11487 0.0361851 -0.124873 -0.0382882 0.197617 -0.142788 0.000113605 
331 13.3988 23.5822 6.11656 0.0960671 0.12249 0.00389996 -0.216328 0.24288 0.191433 
330 11.2739 24.7568 6.12782 0.00272257 -0.234437 -0.108948 0.141976 0.839999 0.0271501 
329 14.8124 23.6278 6.10827 -0.0380609 0.0238461 0.0354459 0.61452 0.053855 -0.106309 
328 12.6883 24.7983 6.1218 -0.039109 0.0889394 -0.00354066 0.680328 0.881578 -0.177231 
323 17.6669 21.2538 6.11107 -0.0343228 0.0193196 0.00507541 -0.296138 0.918709 -0.702529 
322 19.0804 21.2931 6.11209 -0.038136 0.18799 -0.00666222 -0.281976 0.26234 -0.240978 
321 16.9466 22.4643 6.12036 -0.0338408 -0.0336213 -0.0187907 0.118877 0.404337 0.335481 
320 9.15214 23.4811 6.11495 -0.227271 -0.013772 -0.024479 -0.36289 0.243088 0.334631 
319 8.44088 24.7015 6.112 -0.0338574 -0.0677478 -0.00595283 -0.179304 -0.303406 -0.188469 
318 7.02711 24.6577 6.11397 0.082636 -0.00781655 -0.0865454 0.0796032 0.0265135 -0.276166 
312 13.4063 21.1434 6.10653 -0.0327651 -0.0144318 0.00646056 0.00903854 0.328902 0.427724 
311 11.2756 22.3089 6.10534 0.0258146 0.0242326 0.0456361 -0.577704 -0.306902 0.295915 
310 12.6889 22.3582 6.1123 0.0117417 -0.203643 -0.0474677 -0.437735 -0.184737 -0.0683448 
309 10.5619 23.5251 6.11138 0.194485 0.123818 0.060273 -0.0462863 0.503851 0.451623 
305 17.67 18.8225 6.08447 -0.149086 -0.0470105 0.0861655 0.727031 0.160966 -0.0970919 
304 15.5399 19.984 6.1064 -0.0953838 -0.178165 -0.0375813 -0.237951 -0.47304 -0.118081 
303 19.0805 18.8644 6.09236 0.196102 0.129918 -0.0279651 0.684283 0.159037 -0.00770584 
302 16.9509 20.0334 6.10094 0.0688128 -0.0791209 -0.0442447 0.181153 -0.218771 0.140035 
301 14.8199 21.1906 6.11007 -0.0129687 0.199768 -0.0296287 0.349915 -0.212955 -0.127337 
295 9.15591 21.0281 6.10788 -0.191348 0.0638567 0.00749325 0.271776 -0.189762 -0.334829 
294 8.44172 22.2473 6.11833 0.0947175 0.0288441 -0.0237079 0.393516 0.382024 -0.219629 
293 7.02807 22.2007 6.10686 -0.00135824 0.10444 0.0625978 0.465541 0.0605731 -0.015669 
292 6.31978 23.4257 6.10461 0.139027 -0.1448 0.0512908 -0.427776 0.558079 -0.721809 
291 4.90868 23.3852 6.09765 0 0 0 0 0 0 
288 15.5462 17.5468 6.08641 0.0257084 0.166708 0.113513 0.527374 -0.0306397 0.296902 
287 13.4097 18.7036 6.10558 0.25955 -0.0117892 -0.0847283 0.108972 0.267888 -0.107074 
286 11.2831 19.8625 6.09516 -0.0810409 0.0365349 0.0501176 0.368936 0.317166 -0.211877 
284 16.9585 17.5991 6.09566 0.0462927 0.113206 -0.0695858 0.398617 -0.732678 0.0994031 
283 14.8275 18.7593 6.09616 -0.13376 -0.152177 0.0281057 0.136967 -0.609133 0.344411 
282 12.6952 19.9149 6.10012 -0.0645064 0.0664195 -0.00804938 -0.0216608 -0.234685 0.316611 
281 10.5664 21.0794 6.09919 0.13633 -0.0668857 -0.000608945 0.63364 0.144844 0.283062 
209 9.15917 18.5783 6.10761 -0.113558 0.0221422 -0.0153127 0.453486 -0.0775061 0.395127 
208 8.44488 19.7966 6.11212 0.0875604 -0.00734452 -0.00632416 -0.306288 0.602702 -0.0921205 
207 7.03162 19.7468 6.10333 -4.0578e-05 0.063361 -0.0107656 0.234682 0.108879 -0.0282415 
206 6.32129 20.9668 6.10425 0.0702164 0.102839 -0.0479896 -0.021874 -0.198076 0.32882 
205 4.90868 20.9252 6.09765 0 0 0 0 0 0 
197 11.2858 17.4187 6.10547 0.0566789 0.066219 0.0211213 0.0713404 -0.00018166 -0.529943 
193 12.6992 17.4753 6.10472 0.0738429 0.0914056 0.0409354 0.460549 0.0359482 0.0768537 
192 10.5716 18.6328 6.11526 -0.0177549 0.0172182 -0.105543 -0.0582643 -0.370095 -0.283958 
67 8.44648 17.3456 6.09284 -0.0620219 0.0456525 0.0490825 -0.500047 -0.0844898 -0.413065 
66 7.03025 17.2941 6.08808 0.1452 -0.0212663 0.0360174 0.277969 0.35334 -0.389 
65 6.32204 18.5144 6.09363 0.0036079 0.0130451 0.0231348 -0.498802 0.474037 0.221751 
64 4.90868 18.4652 6.09765 0 0 0 0 0 0 
306 19.804 17.6592 6.10359 0.0721217 -0.066657 0.00058714 0.0258476 0.407699 0.0672132 
324 19.7956 20.0844 6.08887 0.0937445 -0.051837 0.0499228 -0.206495 -0.141959 0.0631381 
342 19.7943 22.5161 6.12225 -0.160296 -0.140224 -0.0287983 0.31104 -0.469942 0.116277 
361 19.788 24.9451 6.10146 -0.180704 -0.0173385 0.0361025 -0.159017 0.840538 0.241544 
210 10.5653 30.8715 6.09639 -0.0834755 -0.121679 0.0399267 -0.051061 0.271578 0.221797 
381 9.14927 33.2912 6.09894 0.003766 -0.116325 -0.0529036 0.0261602 0.0701403 0.141847 
374 9.15141 30.8391 6.09586 -0.0150534 -0.0599394 -0.0439269 -0.324787 -0.286211 0.0952928 
373 8.44363 32.0608 6.09045 0.0627434 -0.0391247 0.0772819 0.282568 0.52338 0.212041 
372 7.03281 32.027 6.09784 -0.207521 0.266136 -0.00924062 -0.498553 -0.368499 -0.331649 
371 6.32451 33.2559 6.09653 -0.0277076 -0.118938 -0.00516654 0.185181 -0.0471259 -0.226771 
370 4.90868 33.2252 6.09765 0 0 0 0 0 0 
366 17.6509 26.1177 6.10619 0.158775 -0.0209134 0.0428418 -0.171999 -0.17285 0.690481 
365 15.5206 27.2879 6.10899 0.154363 0.307387 0.0840475 -0.244341 0.259977 0.0863931 
364 13.3937 28.4698 6.11409 0.176112 0.0557718 0.0153917 -0.210696 -0.0640308 0.583522 
363 11.2726 29.6476 6.10138 -0.0429949 0.177576 0.0155712 -0.187355 -0.180471 -0.226898 
360 9.14888 28.3862 6.10288 -0.119584 0.0152691 -0.0178042 -0.508231 0.0810951 -0.291483 
359 8.43964 29.6106 6.09083 0.15428 -0.171953 0.021598 -0.056525 0.272947 -0.350913 
358 7.02608 29.5722 6.08919 0.0985275 0.0844597 0.0303608 -0.270196 0.160918 0.536863 
357 6.3253 30.7982 6.09148 -0.268051 -0.0296797 0.0196187 0.0366393 -0.253487 0.681307 
356 4.90868 30.7652 6.09765 0 0 0 0 0 0 
350 13.3984 26.0285 6.12553 -0.113851 -0.0597362 -0.0202458 -0.366541 0.715825 -0.291756 
349 11.2695 27.2011 6.12216 0.191169 0.0272065 0.0233682 -0.477436 0.468323 0.386217 
347 14.8105 26.0668 6.11483 -0.0333508 -0.0299495 0.000112153 -0.617456 -0.318931 -0.277602 
346 12.6848 27.2463 6.12753 -0.0846592 -0.22483 -0.024622 0.41176 -0.200682 -0.190543 
345 10.5628 28.4192 6.10963 -0.0996056 0.131162 0.00980265 -0.158544 0.186629 -0.330095 
340 9.14544 25.9349 6.11048 0.136205 -0.114902 -0.0293971 0.150273 0.112856 -0.176048 
339 8.43881 27.1556 6.09081 -0.0352797 0.0403456 0.0677909 0.268114 -0.492567 -0.119469 
338 7.02502 27.1165 6.09419 0.0602454 -0.0397807 0.0215448 -0.113018 0.116932 -0.13755 
337 6.32145 28.3413 6.09669 -0.0746733 -0.0656481 -0.0390542 0.439812 -0.0185251 -0.499214 
336 4.90868 28.3052 6.09765 0 0 0 0 0 0 
327 10.5626 25.9719 6.11872 -0.162652 0.11602 0.0283343 0.18661 -0.156384 -0.753947 
317 6.32168 25.8796 6.09593 -0.0469272 0.154936 0.0524323 -0.692549 0.0404495 0.0893973 
316 4.90868 25.8452 6.09765 0 0 0 0 0 0 
252 17.6503 33.4246 6.10772 -0.0464458 -0.0178635 -0.0742411 -0.203053 -0.154454 0.000472274 
248 19.065 33.4522 6.11519 0.0521398 0.127207 -0.0511916 -0.192193 0.181724 0.393565 
237 17.6512 30.9845 6.09003 -0.00900435 0.278975 0.0573057 -0.742891 0.201299 -0.564827 
236 15.5214 32.1691 6.09804 -0.0998245 0.0648816 -0.0471299 -0.404018 -0.483361 0.330551 
235 13.3984 33.3582 6.09685 0.0144833 -0.00540518 0.0199678 -0.415908 -0.645372 -0.531406 
233 19.0672 31.0171 6.1078 -0.139525 0.162069 -0.00622329 -0.540097 -0.273574 0.209664 
232 16.9335 32.203 6.09287 0.202701 -0.152664 0.012977 0.0161565 -0.412129 0.148965 
231 14.8113 33.3899 6.10363 0.0623921 -0.0487364 -0.0954366 -0.0132078 -0.0825621 0.0496299 
224 17.6508 28.5537 6.10584 -0.208937 -0.0738534 0.0784552 -0.332734 0.315949 -0.438936 
223 15.521 29.7322 6.10614 0.0276106 -0.0626537 -0.0268846 -0.0203744 -0.0574061 -0.296562 
222 13.3955 30.9132 6.09814 -0.00561635 0.0550519 0.013808 -0.0650823 0.109334 0.13393 
221 11.2731 32.0984 6.10103 0.0630658 0.112195 -0.0397428 -0.203874 0.00521024 0.121198 
220 19.0622 28.5846 6.11916 0.115735 0.0874026 -0.0492793 -0.23763 -0.32152 -0.0653439 
219 16.9342 29.7678 6.10627 0.0144789 -0.136774 -0.0860992 -0.361358 -0.638559 -0.508412 
218 14.8073 30.9462 6.09262 0.0872921 0.113564 0.0275155 -0.171856 0.446297 0.382717 
217 12.6877 32.1341 6.09996 -0.108456 -0.125536 -0.0393731 -0.274107 -0.14569 0.527283 
216 10.5619 33.3197 6.10051 0.0854027 0.0523244 -0.0469915 -0.411857 0.693564 0.361635 
214 19.0678 26.1549 6.10091 -0.156903 -0.100043 0.0643018 0.0920248 -0.122792 -0.471757 
213 16.9365 27.3302 6.11597 -0.0825642 0.0203414 -0.067138 0.148606 -0.045367 0.0574701 
212 14.8092 28.5085 6.11383 -0.105946 -0.148569 -0.0393659 -0.162163 0.354676 -0.309936 
211 12.6865 29.6872 6.10376 -0.169368 0.0407819 0.000715585 0.280033 0.486378 -0.096834 
238 19.7781 29.8052 6.12143 0.103965 -0.164301 -0.0189895 0.263584 -0.411055 -0.0440189 
225 19.7797 27.3725 6.10664 0.0778936 0.121235 0.00808592 0.277701 -0.106114 -0.0950276 
253 19.7816 32.2393 6.11343 -0.0493253 -0.100246 0.0297219 -0.763554 0.238518 0.190214 
896 19.7752 41.9853 6.08068 -0.0822489 0.0999562 0.0547905 0.748738 0.897409 -0.418491 
879 17.6431 40.7455 6.07528 0.0923499 -0.080732 -0.0409263 0.230358 -0.0469084 0.267587 
878 15.5178 41.9433 6.07257 -0.102418 -0.133587 -0.0261343 0.147156 -0.240245 -0.145764 
877 13.3885 43.1408 6.07805 0.0415828 0.126207 0.0262737 0.0291909 0.253297 0.0555479 
875 19.058 40.7658 6.07552 0.0659977 -0.0528434 -0.0105865 -0.0507834 0.0445494 -0.260256 
874 16.932 41.9635 6.06642 0.0241262 0.0246675 0.0518911 -0.212337 0.515153 -0.286309 
880 19.7738 39.5453 6.07825 -0.160704 0.188996 0.0391604 -0.467902 0.590912 0.2603 
799 9.14563 43.1016 6.09377 0.0562918 0.0981476 0.0352444 -0.669263 -0.168394 -0.187371 
790 17.6423 38.3046 6.09212 0.0257219 -0.142026 -0.0399031 0.0206717 -0.0759347 0.551659 
789 15.5159 39.4955 6.08114 0.13295 0.100005 0.063968 -0.0979396 -0.066586 0.14649 
788 13.3893 40.6975 6.08474 0.159158 -0.124003 -0.00621018 0.219104 -0.148413 -0.0338381 
787 11.2688 41.8957 6.09876 -0.115563 -0.167808 0.00610511 0.0564375 0.282945 -0.0725816 
786 19.0567 38.3261 6.08255 0.0440933 -0.0111597 -0.0170259 0.00520397 0.121657 0.331803 
785 16.9326 39.5231 6.08406 -0.198891 -0.0502305 -0.0299537 -0.19021 0.525517 -0.615557 
784 14.8046 40.7152 6.0838 0.0387455 0.135176 -0.0484208 0.0686932 0.025325 -0.167902 
783 12.6812 41.9146 6.09685 -0.0297079 0.136257 -0.0836227 -0.0868989 -0.465987 -0.27726 
782 10.5605 43.118 6.09188 -0.0652337 -0.00995638 0.0317163 -0.0622426 -0.269382 0.183921 
389 9.14702 38.1979 6.1004 -0.149413 -0.0724249 -0.052546 0.034727 0.208683 -0.064826 
388 8.44184 39.422 6.09762 0.0789981 -0.0576364 0.0360315 0.303852 -0.291538 -0.289308 
387 7.0303 39.404 6.09578 -0.184122 -0.102783 0.0139567 0.189897 -0.218908 0.0850881 
386 9.14778 35.7424 6.08658 -0.0106517 0.0870937 0.133737 0.0779382 0.141404 -0.620125 
385 8.44112 36.9675 6.09249 -0.0078405 0.0268878 0.0167643 -0.0594842 -0.423354 -0.119302 
384 7.02569 36.9447 6.10057 0.0184747 0.120665 -0.00720682 0.130004 -0.268724 -0.3863 
383 6.32125 38.173 6.09814 0.15338 -0.0670191 -0.0256915 0.518126 -0.357903 -0.447603 
382 4.90868 38.1452 6.09765 0 0 0 0 0 0 