ITEM: TIMESTEP
6200
ITEM: NUMBER OF ATOMS
4798
ITEM: BOX BOUNDS ff ff ff
-10.3577 110.358
-10.0998 131.9
-100.402 112.598
ITEM: ATOMS id x y z fx fy fz vx vy vz 
72 -0.062301 2.4752 6.09765 0 0 0 0 0 0 
110 4.19854 7.39519 6.09765 0 0 0 0 0 0 
109 2.77826 7.39519 6.09765 0 0 0 0 0 0 
93 4.19854 4.9352 6.09765 0 0 0 0 0 0 
92 2.77826 4.9352 6.09765 0 0 0 0 0 0 
91 2.06812 6.16519 6.09765 0 0 0 0 0 0 
87 0.647839 6.16519 6.09765 0 0 0 0 0 0 
86 -0.062301 7.39519 6.09765 0 0 0 0 0 0 
81 4.19854 2.4752 6.09765 0 0 0 0 0 0 
80 2.77826 2.4752 6.09765 0 0 0 0 0 0 
79 2.06812 3.7052 6.09765 0 0 0 0 0 0 
78 0.647839 3.7052 6.09765 0 0 0 0 0 0 
77 -0.062301 4.9352 6.09765 0 0 0 0 0 0 
76 4.19854 0.015197 6.09765 0 0 0 0 0 0 
75 2.77826 0.015197 6.09765 0 0 0 0 0 0 
74 2.06812 1.2452 6.09765 0 0 0 0 0 0 
73 0.647839 1.2452 6.09765 0 0 0 0 0 0 
6 -0.062301 12.3152 6.09765 0 0 0 0 0 0 
131 4.19854 12.3152 6.09765 0 0 0 0 0 0 
130 2.77826 12.3152 6.09765 0 0 0 0 0 0 
124 4.19854 9.85519 6.09765 0 0 0 0 0 0 
123 2.77826 9.85519 6.09765 0 0 0 0 0 0 
122 2.06812 11.0852 6.09765 0 0 0 0 0 0 
117 0.647839 11.0852 6.09765 0 0 0 0 0 0 
108 2.06812 8.62519 6.09765 0 0 0 0 0 0 
100 0.647839 8.62519 6.09765 0 0 0 0 0 0 
99 -0.062301 9.85519 6.09765 0 0 0 0 0 0 
34 4.19854 14.7752 6.09765 0 0 0 0 0 0 
33 2.77826 14.7752 6.09765 0 0 0 0 0 0 
32 2.06812 16.0052 6.09765 0 0 0 0 0 0 
31 0.647839 16.0052 6.09765 0 0 0 0 0 0 
19 2.06812 13.5452 6.09765 0 0 0 0 0 0 
18 0.647839 13.5452 6.09765 0 0 0 0 0 0 
17 -0.062301 14.7752 6.09765 0 0 0 0 0 0 
300 4.19854 24.6152 6.09765 0 0 0 0 0 0 
299 2.77826 24.6152 6.09765 0 0 0 0 0 0 
204 4.19854 22.1552 6.09765 0 0 0 0 0 0 
203 2.77826 22.1552 6.09765 0 0 0 0 0 0 
202 2.06812 23.3852 6.09765 0 0 0 0 0 0 
191 0.647839 23.3852 6.09765 0 0 0 0 0 0 
190 -0.062301 24.6152 6.09765 0 0 0 0 0 0 
71 2.06812 20.9252 6.09765 0 0 0 0 0 0 
70 0.647839 20.9252 6.09765 0 0 0 0 0 0 
69 -0.062301 22.1552 6.09765 0 0 0 0 0 0 
63 4.19854 19.6952 6.09765 0 0 0 0 0 0 
62 2.77826 19.6952 6.09765 0 0 0 0 0 0 
49 4.19854 17.2352 6.09765 0 0 0 0 0 0 
48 2.77826 17.2352 6.09765 0 0 0 0 0 0 
47 2.06812 18.4652 6.09765 0 0 0 0 0 0 
46 0.647839 18.4652 6.09765 0 0 0 0 0 0 
45 -0.062301 19.6952 6.09765 0 0 0 0 0 0 
30 -0.062301 17.2352 6.09765 0 0 0 0 0 0 
355 4.19854 31.9952 6.09765 0 0 0 0 0 0 
354 2.77826 31.9952 6.09765 0 0 0 0 0 0 
353 2.06812 33.2252 6.09765 0 0 0 0 0 0 
344 0.647839 33.2252 6.09765 0 0 0 0 0 0 
335 4.19854 29.5352 6.09765 0 0 0 0 0 0 
334 2.77826 29.5352 6.09765 0 0 0 0 0 0 
333 2.06812 30.7652 6.09765 0 0 0 0 0 0 
326 0.647839 30.7652 6.09765 0 0 0 0 0 0 
325 -0.062301 31.9952 6.09765 0 0 0 0 0 0 
315 4.19854 27.0752 6.09765 0 0 0 0 0 0 
314 2.77826 27.0752 6.09765 0 0 0 0 0 0 
313 2.06812 28.3052 6.09765 0 0 0 0 0 0 
308 0.647839 28.3052 6.09765 0 0 0 0 0 0 
307 -0.062301 29.5352 6.09765 0 0 0 0 0 0 
298 2.06812 25.8452 6.09765 0 0 0 0 0 0 
297 0.647839 25.8452 6.09765 0 0 0 0 0 0 
296 -0.062301 27.0752 6.09765 0 0 0 0 0 0 
215 -0.062301 36.9152 6.09765 0 0 0 0 0 0 
376 4.19854 36.9152 6.09765 0 0 0 0 0 0 
375 2.77826 36.9152 6.09765 0 0 0 0 0 0 
369 4.19854 34.4552 6.09765 0 0 0 0 0 0 
368 2.77826 34.4552 6.09765 0 0 0 0 0 0 
367 2.06812 35.6852 6.09765 0 0 0 0 0 0 
362 0.647839 35.6852 6.09765 0 0 0 0 0 0 
343 -0.062301 34.4552 6.09765 0 0 0 0 0 0 
258 4.19854 41.8352 6.09765 0 0 0 0 0 0 
257 2.77826 41.8352 6.09765 0 0 0 0 0 0 
256 2.06812 43.0652 6.09765 0 0 0 0 0 0 
255 0.647839 43.0652 6.09765 0 0 0 0 0 0 
243 4.19854 39.3752 6.09765 0 0 0 0 0 0 
242 2.77826 39.3752 6.09765 0 0 0 0 0 0 
241 2.06812 40.6052 6.09765 0 0 0 0 0 0 
240 0.647839 40.6052 6.09765 0 0 0 0 0 0 
239 -0.062301 41.8352 6.09765 0 0 0 0 0 0 
228 2.06812 38.1452 6.09765 0 0 0 0 0 0 
227 0.647839 38.1452 6.09765 0 0 0 0 0 0 
226 -0.062301 39.3752 6.09765 0 0 0 0 0 0 
254 -0.062301 44.2952 6.09765 0 0 0 0 0 0 
905 4.19854 51.6752 6.09765 0 0 0 0 0 0 
904 2.77826 51.6752 6.09765 0 0 0 0 0 0 
890 4.19854 49.2152 6.09765 0 0 0 0 0 0 
889 2.77826 49.2152 6.09765 0 0 0 0 0 0 
888 2.06812 50.4452 6.09765 0 0 0 0 0 0 
887 0.647839 50.4452 6.09765 0 0 0 0 0 0 
886 -0.062301 51.6752 6.09765 0 0 0 0 0 0 
794 4.19854 46.7552 6.09765 0 0 0 0 0 0 
793 2.77826 46.7552 6.09765 0 0 0 0 0 0 
792 2.06812 47.9852 6.09765 0 0 0 0 0 0 
781 0.647839 47.9852 6.09765 0 0 0 0 0 0 
780 -0.062301 49.2152 6.09765 0 0 0 0 0 0 
280 2.06812 45.5252 6.09765 0 0 0 0 0 0 
279 0.647839 45.5252 6.09765 0 0 0 0 0 0 
278 -0.062301 46.7552 6.09765 0 0 0 0 0 0 
272 4.19854 44.2952 6.09765 0 0 0 0 0 0 
271 2.77826 44.2952 6.09765 0 0 0 0 0 0 
959 4.19854 59.0552 6.09765 0 0 0 0 0 0 
958 2.77826 59.0552 6.09765 0 0 0 0 0 0 
957 2.06812 60.2852 6.09765 0 0 0 0 0 0 
952 0.647839 60.2852 6.09765 0 0 0 0 0 0 
945 4.19854 56.5952 6.09765 0 0 0 0 0 0 
944 2.77826 56.5952 6.09765 0 0 0 0 0 0 
943 2.06812 57.8252 6.09765 0 0 0 0 0 0 
934 0.647839 57.8252 6.09765 0 0 0 0 0 0 
933 -0.062301 59.0552 6.09765 0 0 0 0 0 0 
925 4.19854 54.1352 6.09765 0 0 0 0 0 0 
924 2.77826 54.1352 6.09765 0 0 0 0 0 0 
923 2.06812 55.3652 6.09765 0 0 0 0 0 0 
916 0.647839 55.3652 6.09765 0 0 0 0 0 0 
915 -0.062301 56.5952 6.09765 0 0 0 0 0 0 
903 2.06812 52.9052 6.09765 0 0 0 0 0 0 
898 0.647839 52.9052 6.09765 0 0 0 0 0 0 
897 -0.062301 54.1352 6.09765 0 0 0 0 0 0 
805 -0.062301 61.5152 6.09765 0 0 0 0 0 0 
966 4.19854 61.5152 6.09765 0 0 0 0 0 0 
965 2.77826 61.5152 6.09765 0 0 0 0 0 0 
862 4.19854 68.8952 6.09765 0 0 0 0 0 0 
861 2.77826 68.8952 6.09765 0 0 0 0 0 0 
848 4.19854 66.4352 6.09765 0 0 0 0 0 0 
847 2.77826 66.4352 6.09765 0 0 0 0 0 0 
846 2.06812 67.6652 6.09765 0 0 0 0 0 0 
845 0.647839 67.6652 6.09765 0 0 0 0 0 0 
844 -0.062301 68.8952 6.09765 0 0 0 0 0 0 
833 4.19854 63.9752 6.09765 0 0 0 0 0 0 
832 2.77826 63.9752 6.09765 0 0 0 0 0 0 
831 2.06812 65.2052 6.09765 0 0 0 0 0 0 
830 0.647839 65.2052 6.09765 0 0 0 0 0 0 
829 -0.062301 66.4352 6.09765 0 0 0 0 0 0 
818 2.06812 62.7452 6.09765 0 0 0 0 0 0 
817 0.647839 62.7452 6.09765 0 0 0 0 0 0 
816 -0.062301 63.9752 6.09765 0 0 0 0 0 0 
1828 4.19854 76.2752 6.09765 0 0 0 0 0 0 
1827 2.77826 76.2752 6.09765 0 0 0 0 0 0 
1826 2.06812 77.5052 6.09765 0 0 0 0 0 0 
1821 0.647839 77.5052 6.09765 0 0 0 0 0 0 
1813 4.19854 73.8152 6.09765 0 0 0 0 0 0 
1812 2.77826 73.8152 6.09765 0 0 0 0 0 0 
1811 2.06812 75.0452 6.09765 0 0 0 0 0 0 
1810 0.647839 75.0452 6.09765 0 0 0 0 0 0 
1809 -0.062301 76.2752 6.09765 0 0 0 0 0 0 
1717 4.19854 71.3552 6.09765 0 0 0 0 0 0 
1716 2.77826 71.3552 6.09765 0 0 0 0 0 0 
1715 2.06812 72.5852 6.09765 0 0 0 0 0 0 
1704 0.647839 72.5852 6.09765 0 0 0 0 0 0 
1703 -0.062301 73.8152 6.09765 0 0 0 0 0 0 
870 2.06812 70.1252 6.09765 0 0 0 0 0 0 
869 0.647839 70.1252 6.09765 0 0 0 0 0 0 
868 -0.062301 71.3552 6.09765 0 0 0 0 0 0 
1728 -0.062301 86.1152 6.09765 0 0 0 0 0 0 
1889 4.19854 86.1152 6.09765 0 0 0 0 0 0 
1888 2.77826 86.1152 6.09765 0 0 0 0 0 0 
1882 4.19854 83.6552 6.09765 0 0 0 0 0 0 
1881 2.77826 83.6552 6.09765 0 0 0 0 0 0 
1880 2.06812 84.8852 6.09765 0 0 0 0 0 0 
1875 0.647839 84.8852 6.09765 0 0 0 0 0 0 
1868 4.19854 81.1952 6.09765 0 0 0 0 0 0 
1867 2.77826 81.1952 6.09765 0 0 0 0 0 0 
1866 2.06812 82.4252 6.09765 0 0 0 0 0 0 
1857 0.647839 82.4252 6.09765 0 0 0 0 0 0 
1856 -0.062301 83.6552 6.09765 0 0 0 0 0 0 
1848 4.19854 78.7352 6.09765 0 0 0 0 0 0 
1847 2.77826 78.7352 6.09765 0 0 0 0 0 0 
1846 2.06812 79.9652 6.09765 0 0 0 0 0 0 
1839 0.647839 79.9652 6.09765 0 0 0 0 0 0 
1838 -0.062301 81.1952 6.09765 0 0 0 0 0 0 
1820 -0.062301 78.7352 6.09765 0 0 0 0 0 0 
1741 2.06812 87.3452 6.09765 0 0 0 0 0 0 
1740 0.647839 87.3452 6.09765 0 0 0 0 0 0 
2677 4.19854 95.9552 6.09765 0 0 0 0 0 0 
2676 2.77826 95.9552 6.09765 0 0 0 0 0 0 
1793 2.06812 94.7252 6.09765 0 0 0 0 0 0 
1792 0.647839 94.7252 6.09765 0 0 0 0 0 0 
1791 -0.062301 95.9552 6.09765 0 0 0 0 0 0 
1785 4.19854 93.4952 6.09765 0 0 0 0 0 0 
1784 2.77826 93.4952 6.09765 0 0 0 0 0 0 
1771 4.19854 91.0352 6.09765 0 0 0 0 0 0 
1770 2.77826 91.0352 6.09765 0 0 0 0 0 0 
1769 2.06812 92.2652 6.09765 0 0 0 0 0 0 
1768 0.647839 92.2652 6.09765 0 0 0 0 0 0 
1767 -0.062301 93.4952 6.09765 0 0 0 0 0 0 
1756 4.19854 88.5752 6.09765 0 0 0 0 0 0 
1755 2.77826 88.5752 6.09765 0 0 0 0 0 0 
1754 2.06812 89.8052 6.09765 0 0 0 0 0 0 
1753 0.647839 89.8052 6.09765 0 0 0 0 0 0 
1752 -0.062301 91.0352 6.09765 0 0 0 0 0 0 
1739 -0.062301 88.5752 6.09765 0 0 0 0 0 0 
2663 -0.062301 98.4152 6.09765 0 0 0 0 0 0 
2808 4.19854 103.335 6.09765 0 0 0 0 0 0 
2807 2.77826 103.335 6.09765 0 0 0 0 0 0 
2806 2.06812 104.565 6.09765 0 0 0 0 0 0 
2799 0.647839 104.565 6.09765 0 0 0 0 0 0 
2788 4.19854 100.875 6.09765 0 0 0 0 0 0 
2787 2.77826 100.875 6.09765 0 0 0 0 0 0 
2786 2.06812 102.105 6.09765 0 0 0 0 0 0 
2781 0.647839 102.105 6.09765 0 0 0 0 0 0 
2780 -0.062301 103.335 6.09765 0 0 0 0 0 0 
2773 4.19854 98.4152 6.09765 0 0 0 0 0 0 
2772 2.77826 98.4152 6.09765 0 0 0 0 0 0 
2771 2.06812 99.6452 6.09765 0 0 0 0 0 0 
2770 0.647839 99.6452 6.09765 0 0 0 0 0 0 
2769 -0.062301 100.875 6.09765 0 0 0 0 0 0 
2675 2.06812 97.1852 6.09765 0 0 0 0 0 0 
2664 0.647839 97.1852 6.09765 0 0 0 0 0 0 
2849 4.19854 110.715 6.09765 0 0 0 0 0 0 
2848 2.77826 110.715 6.09765 0 0 0 0 0 0 
2842 4.19854 108.255 6.09765 0 0 0 0 0 0 
2841 2.77826 108.255 6.09765 0 0 0 0 0 0 
2840 2.06812 109.485 6.09765 0 0 0 0 0 0 
2835 0.647839 109.485 6.09765 0 0 0 0 0 0 
2828 4.19854 105.795 6.09765 0 0 0 0 0 0 
2827 2.77826 105.795 6.09765 0 0 0 0 0 0 
2826 2.06812 107.025 6.09765 0 0 0 0 0 0 
2817 0.647839 107.025 6.09765 0 0 0 0 0 0 
2816 -0.062301 108.255 6.09765 0 0 0 0 0 0 
2798 -0.062301 105.795 6.09765 0 0 0 0 0 0 
2716 4.19854 113.175 6.09765 0 0 0 0 0 0 
2715 2.77826 113.175 6.09765 0 0 0 0 0 0 
2701 2.06812 111.945 6.09765 0 0 0 0 0 0 
2700 0.647839 111.945 6.09765 0 0 0 0 0 0 
2699 -0.062301 113.175 6.09765 0 0 0 0 0 0 
2688 -0.062301 110.715 6.09765 0 0 0 0 0 0 
2712 -0.062301 115.635 6.09765 0 0 0 0 0 0 
3636 4.19854 120.555 6.09765 0 0 0 0 0 0 
3635 2.77826 120.555 6.09765 0 0 0 0 0 0 
3634 2.06812 121.785 6.09765 0 0 0 0 0 0 
3623 0.647839 121.785 6.09765 0 0 0 0 0 0 
2753 2.06812 119.325 6.09765 0 0 0 0 0 0 
2752 0.647839 119.325 6.09765 0 0 0 0 0 0 
2751 -0.062301 120.555 6.09765 0 0 0 0 0 0 
2745 4.19854 118.095 6.09765 0 0 0 0 0 0 
2744 2.77826 118.095 6.09765 0 0 0 0 0 0 
2731 4.19854 115.635 6.09765 0 0 0 0 0 0 
2730 2.77826 115.635 6.09765 0 0 0 0 0 0 
2729 2.06812 116.865 6.09765 0 0 0 0 0 0 
2728 0.647839 116.865 6.09765 0 0 0 0 0 0 
2727 -0.062301 118.095 6.09765 0 0 0 0 0 0 
2714 2.06812 114.405 6.09765 0 0 0 0 0 0 
2713 0.647839 114.405 6.09765 0 0 0 0 0 0 
28 17.7773 6.72347 6.04041 -0.359865 -0.162196 0.0559671 -0.285834 1.30847 -1.63912 
90 11.5349 0.461608 5.9712 -0.444902 0.320939 -0.0687445 -2.31305 -1.36048 0.63607 
96 7.07823 2.6194 6.09099 0.433437 -0.205985 -0.0310914 1.13755 -1.28736 0.861299 
104 17.168 0.715244 5.87735 0.429016 -0.278162 0.08238 0.707803 -1.75615 3.72849 
106 13.6248 1.74792 5.9815 -0.386487 -0.211504 0.117514 -1.88884 -0.516747 2.23549 
105 11.4197 2.85141 5.99954 -0.506589 0.206648 0.117387 -0.635876 1.58415 0.600646 
102 12.8485 2.92858 6.00852 0.0475758 -0.0778411 -0.0801387 0.254904 -2.3514 0.00897513 
120 15.6991 3.03047 5.98948 0.0232894 0.460986 -0.00995285 -0.139119 1.05284 1.99488 
88 10.7048 1.61345 6.01027 0.519154 -0.0570668 0.0325043 -1.60928 -1.83896 1.54492 
103 15.0085 1.80256 5.88149 0.0341991 0.478272 0.0458621 -0.953388 0.19753 -0.047665 
118 11.3563 5.27035 6.0246 0.733981 0.0479892 -0.0144111 -1.09289 -0.148302 1.73871 
115 9.22758 3.95293 6.03862 0.374665 0.335099 0.0352094 0.121652 -1.37804 1.01653 
9 14.9125 6.64304 6.08355 -0.159936 0.197466 -0.305347 0.455392 -0.53693 -0.194704 
101 10.6581 4.04804 6.03476 -0.258607 -0.66841 -0.0813746 -0.500908 -1.19691 1.66782 
114 8.47663 5.14706 6.02222 0.71152 -0.00797893 0.0120255 0.934877 0.587305 0.619415 
10 17.0611 5.50359 6.07155 0.30849 0.234266 -0.0476624 -0.494659 0.533084 1.13647 
2 12.7827 5.3383 6.0158 0.0997303 0.264216 0.0660942 0.596608 -0.285338 -0.473276 
4 17.1193 3.09275 6.03142 0.550514 -0.372476 0.145818 -0.345099 0.0390193 -2.67539 
85 8.55282 0.343077 6.04476 0.279833 0.019541 -0.0548096 -0.773418 1.5671 0.250576 
24 19.1887 6.77363 6.0422 0.292304 0.615602 -0.103978 -0.730941 -1.46059 2.56269 
121 17.903 1.89952 6.0452 -0.271027 0.51734 0.0550315 -0.819155 1.33523 -0.305719 
119 13.5399 4.15355 6.00404 -0.257459 0.180762 0.0939922 -1.04505 0.466549 0.519043 
11 19.2188 4.36874 6.05019 0.605446 0.00115762 0.0594379 -0.839179 1.75889 -0.543134 
14 15.6471 5.45356 6.08232 0.246579 -0.408815 -0.0961413 1.55135 -1.3931 1.34927 
13 13.494 6.56735 6.03229 0.2498 -0.41035 0.117595 0.871519 0.891082 0.0669252 
15 17.8091 4.31679 6.0566 -0.151324 0.0200508 -0.0932272 1.49972 0.274018 0.459559 
3 14.9515 4.22686 6.0312 0.0749772 -0.238212 0.0409268 1.17796 0.0597528 0.399577 
107 15.8203 0.692108 5.64486 -0.0250826 -0.509493 -0.137629 -2.12597 2.23837 -0.425299 
98 9.30522 1.53966 6.0345 -0.0595001 -0.164267 0.169594 0.713186 0.480048 -0.243338 
97 8.53123 2.72451 6.07667 -0.43936 -0.215005 -0.246058 -0.00372316 -0.274042 -1.22143 
95 6.34066 3.81756 6.04973 -0.330102 -0.167847 0.173605 -0.145201 0.0351746 0.0438076 
113 7.06334 5.05156 6.03944 -0.313766 0.132112 0.0499747 -0.237522 -1.04482 1.04753 
1 10.6277 6.46709 6.02228 -0.296928 -0.19079 0.0392289 -0.514592 1.02117 -0.761588 
129 9.20668 6.37597 6.02626 0.0870015 -0.217883 0.00205377 -0.132393 -1.49809 -0.941139 
127 7.0477 7.48861 6.09651 0.443999 0.192835 -0.149147 0.561585 0.0412029 0.411839 
128 8.4778 7.57036 6.04874 -0.523349 0.681203 0.0877235 0.675558 -0.266426 0.178645 
112 6.33243 6.26 6.08287 -0.180587 -0.483912 -0.0259416 0.221136 1.23772 0.074798 
94 4.90868 3.7052 6.09765 0 0 0 0 0 0 
111 4.90868 6.16519 6.09765 0 0 0 0 0 0 
82 4.90868 1.2452 6.09765 0 0 0 0 0 0 
89 12.896 0.547595 6.1087 0.310084 0.0775536 -0.0058601 -2.10513 -0.596535 0.420451 
5 19.2871 1.96474 6.23912 -0.399247 -0.469421 -0.346678 0.580767 -1.85326 0.0146586 
84 7.19798 0.237429 6.25989 0.0529767 0.0347466 -0.0858219 -1.94721 -2.22764 0.775285 
83 6.35397 1.36402 6.13252 -0.547853 0.245026 0.0580048 -0.330081 -1.47228 0.525851 
51 6.3167 16.0487 6.09128 0.0416982 0.0995325 -0.0919161 0.416234 -2.38193 0.420464 
144 9.17461 13.7032 6.08674 -0.182611 -0.365406 -0.0322822 -0.523217 -1.40721 -0.169679 
140 8.45722 12.4657 6.09606 0.195522 -0.0640767 -0.0329919 -2.25989 -1.16434 0.694692 
35 10.5951 13.7598 6.08353 -0.618822 0.144022 -0.164621 0.130017 1.17312 0.618404 
40 11.3027 12.5478 6.03105 0.252618 0.210304 0.0698016 0.599175 -0.205822 0.971397 
57 11.2913 14.9954 6.06845 -0.206472 -0.128775 -0.00182065 -0.431915 1.6322 -0.133963 
27 15.6275 7.86563 6.01827 -0.588753 -0.319243 0.268853 -1.54437 -0.787328 -1.43397 
23 17.0363 7.91597 6.04587 0.321029 0.131184 -0.116167 -0.869806 0.0790532 -0.0814427 
39 19.1669 9.19252 6.07151 -0.262018 0.0765843 -0.153049 -1.02432 -1.26963 -1.34423 
43 17.7438 9.13635 6.04067 0.263987 -0.0637382 0.0157926 -2.35428 -0.452251 -1.25547 
68 9.14312 16.1387 6.04498 0.610285 -0.26453 0.124956 0.297821 -1.98266 0.774906 
56 19.1348 11.6081 6.03826 0.0355379 0.462275 0.0367624 0.239958 -0.932308 1.37078 
42 15.5866 10.2835 6.00693 0.0840474 -0.240427 -0.0843897 0.286602 -0.189442 -1.68761 
285 19.0909 16.4608 6.05642 0.501451 -0.183081 0.0435394 0.897903 -0.584873 -2.11856 
26 13.4605 8.98807 6.03421 0.224564 -0.177422 -0.0271875 0.954371 1.42456 -0.678426 
22 14.879 9.05605 6.02044 0.135652 0.23431 0.0181636 2.56342 1.03021 -0.825523 
195 16.9682 15.1862 6.04024 -0.119631 0.322553 0.202703 1.10319 0.125143 0.375138 
53 12.6963 15.0614 6.05121 0.727211 -0.45523 0.0179128 -0.199046 0.567893 -0.459357 
289 17.6855 16.4125 6.06219 -0.525949 -0.504764 -0.120683 -0.902248 -0.63823 -1.20345 
58 13.4253 13.8475 6.02714 0.12275 0.196892 0.0500212 -0.59675 -0.254885 -0.91986 
41 13.4334 11.4196 5.9818 0.715602 -0.305035 0.244819 -0.27839 0.34644 -0.0539407 
199 15.545 15.1326 6.07904 0.732586 -0.13762 -0.190386 0.435975 0.318168 1.89643 
21 12.7306 10.1881 6.04415 -0.222416 0.193227 -0.215727 -0.7575 1.33016 0.379015 
37 14.8577 11.4837 5.99445 -0.364176 -0.265192 0.0284651 0.381234 1.76096 0.523222 
54 14.846 13.9075 6.04578 -0.258742 -0.317353 -0.014131 -1.49713 -1.6165 1.22736 
200 17.6968 13.9864 6.03801 0.101071 -0.205958 -0.0367294 -1.319 -1.84304 1.94634 
55 16.9846 12.7656 6.01403 0.32817 -0.301925 0.0306453 0.226817 -2.4056 -0.397234 
59 15.5748 12.6953 6.01928 -0.238994 0.723107 -0.037794 0.65726 0.00728679 0.59834 
141 9.1798 11.2525 6.07795 -0.421778 -0.198826 -0.0227947 1.78154 1.01954 0.674212 
20 10.5873 11.3236 6.01843 0.128781 0.108428 0.217452 -0.943585 -0.623988 -0.399738 
138 6.31763 13.6039 6.08215 0.159392 -0.447547 -0.0203406 0.388413 0.807013 -1.08747 
194 14.8254 16.3349 6.08179 0.20777 -0.166805 -0.00492532 0.357558 -1.61816 -0.952208 
38 17.0052 10.3304 6.00542 0.167435 0.557599 0.0559314 1.65122 -1.55174 1.82019 
52 10.5675 16.2011 6.05869 -0.583484 -0.191643 0.0153341 2.79045 0.137532 0.483395 
8 12.7613 7.75328 6.02577 -0.317764 0.63716 0.0863367 0.106535 -1.46162 0.0363731 
60 17.7202 11.563 6.01124 -0.223322 -0.329754 0.00784742 0.107714 -1.38586 -0.790719 
198 13.4253 16.2763 6.07604 -0.831391 0.0580863 -0.0462658 -0.962089 -1.46098 1.05398 
36 12.7185 12.6211 6.01773 -0.403645 -0.0400079 -0.0801611 -0.774884 0.306044 1.22811 
7 10.6154 8.89062 6.05547 -0.488911 -0.114807 -0.0508056 -0.0306309 -2.3857 -0.841049 
12 11.3462 7.68684 6.04249 -0.119929 0.136214 -0.0935172 0.0237811 -0.717152 0.220602 
136 9.19064 8.81236 6.06237 0.301964 -0.562192 0.0809238 -0.764377 1.55824 1.43649 
196 19.1161 14.0283 6.05929 -0.165316 0.388492 -0.0855524 0.710492 -0.398535 2.20372 
25 11.3106 10.125 6.03477 0.515188 -0.338878 0.0135408 -1.11873 -0.626905 0.348375 
139 7.04458 12.3891 6.08452 -0.336686 0.0210457 0.0602759 -0.471384 0.38823 2.55196 
142 7.02302 14.8277 6.05501 0.285855 0.557088 0.0571845 -0.0049477 0.169779 -0.121932 
143 8.43618 14.9051 6.04699 0.312694 -0.11266 0.0653444 -1.02135 1.62396 0.0595148 
292 6.32166 23.423 6.07414 -0.0655675 0.17589 0.02182 -0.515116 1.17049 0.898091 
330 11.2749 24.75 6.02728 0.336325 0.15994 0.0746464 -1.82302 0.27956 -0.169348 
318 7.02375 24.6594 6.08205 0.051227 -0.156233 0.0290831 -0.294868 -0.531583 1.50639 
206 6.32242 20.9752 6.05848 -0.0726086 -0.2987 0.157105 -0.332958 -0.427355 -1.67397 
293 7.02914 22.205 6.07 0.00376486 -0.0148917 -0.0561008 -1.47517 -3.85356 -0.177596 
66 7.0206 17.2844 6.07892 0.15234 0.287723 0.129546 0.038595 -0.205958 -0.536653 
207 7.02883 19.7494 6.07987 -0.123361 -0.0375936 -0.0466814 0.222312 -0.0772604 -2.13879 
331 13.4021 23.5792 6.07654 0.00101222 -0.0626841 0.0163645 -0.422847 1.05109 1.63885 
65 6.31854 18.5089 6.09215 0.0743099 0.20103 -0.0999063 1.45086 0.332688 -0.0963033 
294 8.44061 22.2453 6.06902 0.201658 -0.384148 0.057336 -1.18804 2.05833 -1.30601 
208 8.44167 19.7982 6.08827 -0.0933499 -0.204407 0.0798049 1.36438 0.203414 -2.42617 
348 16.9253 24.8964 6.08412 0.258952 -0.12123 0.0116841 1.17026 0.682472 0.435216 
351 15.5139 24.8451 6.08308 0.26093 0.368345 -0.0601489 -1.39304 -1.14863 -0.462164 
295 9.15526 21.0203 6.09643 -0.455676 0.433097 -0.0480008 1.83146 1.02392 1.20658 
319 8.43701 24.6923 6.07106 0.396972 -0.0216014 0.0257008 2.06931 -0.469886 0.714215 
320 9.15685 23.4664 6.07985 -0.304833 0.650015 -0.196764 -0.288278 -0.219964 0.502334 
309 10.5677 23.5215 6.04593 -0.142974 -0.00476424 0.109478 0.0287607 1.86405 -1.77555 
304 15.5208 19.9767 6.08401 0.255154 -0.0592358 0.069752 -0.179857 0.961215 1.14417 
328 12.6964 24.7909 6.03892 -0.579206 0.170542 0.0202549 0.68453 1.29267 -0.0818215 
311 11.2777 22.3073 6.09059 0.102835 -0.201951 0.0399206 -1.45374 0.432302 -1.00571 
303 19.0848 18.8767 6.04473 -0.00259919 0.0672344 0.0270044 0.539356 -0.171693 -0.244761 
288 15.534 17.5499 6.07612 0.614253 -0.0931114 0.031815 -0.210089 0.741091 0.39332 
284 16.9521 17.6084 6.05386 -0.109595 0.0287653 -0.0216753 0.377845 0.233489 0.132552 
306 19.8127 17.6725 6.06377 -0.0612084 0.212405 0.0666966 0.0480846 2.50881 -0.173349 
321 16.9331 22.4561 6.09795 -0.0909033 0.369664 -0.0476955 -0.66102 1.12616 0.731693 
323 17.6572 21.2595 6.08417 0.159863 -0.621596 -0.0177394 0.398156 0.277959 -1.36927 
302 16.9361 20.0349 6.05366 0.367673 -0.154007 0.039177 0.201473 -0.336878 -0.105109 
352 17.6444 23.6823 6.08525 0.131765 0.167781 0.1476 1.07763 -0.474185 1.22719 
322 19.0789 21.2957 6.09606 -0.619823 0.488355 -0.0359593 1.09228 -0.0961796 -0.166313 
305 17.6691 18.825 6.01534 -0.263333 0.359265 0.181031 0.0718487 -0.76003 1.48869 
197 11.2768 17.4217 6.06998 0.417234 0.52523 0.216087 -0.583979 -0.61371 1.65932 
193 12.6966 17.4821 6.08996 -0.171288 -0.0981578 0.0334955 -0.907823 0.0456856 0.0216766 
324 19.7967 20.0982 6.05938 0.371589 -0.499732 0.0486522 -2.30709 1.21516 -0.924125 
137 4.90868 13.5452 6.09765 0 0 0 0 0 0 
132 4.90868 11.0852 6.09765 0 0 0 0 0 0 
125 4.90868 8.62519 6.09765 0 0 0 0 0 0 
50 4.90868 16.0052 6.09765 0 0 0 0 0 0 
126 6.31963 8.69661 6.11074 0.484213 0.173012 -0.021558 -0.542821 1.24588 1.59314 
135 8.46305 10.0095 6.11026 -0.142978 0.595349 -0.188477 0.299222 0.811238 -0.0226335 
134 7.04245 9.93233 6.11227 0.087328 0.0674349 0.0480688 1.62052 -1.4983 0.983982 
133 6.32846 11.1496 6.108 -0.140124 0.0824869 -0.0302599 -1.7984 1.45517 -0.332555 
332 15.5156 22.4038 6.09962 0.327222 0.25732 0.0814199 2.0589 0.833299 -2.25527 
192 10.5701 18.6427 6.14159 -0.458563 -0.675225 -0.107455 -0.218798 -1.34867 1.27326 
209 9.15088 18.5801 6.13018 0.0920426 -0.0165571 -0.0784322 -0.184544 -0.0481649 0.799865 
64 4.90868 18.4652 6.09765 0 0 0 0 0 0 
291 4.90868 23.3852 6.09765 0 0 0 0 0 0 
205 4.90868 20.9252 6.09765 0 0 0 0 0 0 
341 19.0635 23.7393 6.14174 -0.267499 -0.749873 -0.12624 0.210858 -1.48148 2.54597 
281 10.5599 21.0719 6.11214 0.513215 0.389771 0.0577619 0.885275 -0.720464 0.534522 
283 14.8184 18.7472 6.10262 -0.214361 0.598901 -0.0139534 -0.198364 -0.817056 -1.06776 
329 14.8094 23.6228 6.09448 -0.0606345 -0.248744 -0.0692174 0.377211 0.558471 -1.98913 
361 19.7754 24.9509 6.15319 0.32846 0.365248 -0.048357 -0.154142 0.955946 1.32849 
312 13.3921 21.1354 6.15004 0.406858 0.637379 -0.0474678 0.854045 -1.05203 1.98866 
67 8.43438 17.3465 6.09835 -0.11615 0.318542 -0.0263011 0.926205 -1.92632 -1.19798 
342 19.7841 22.5196 6.13192 -0.127885 0.314133 -0.0366715 1.29023 -1.85663 -0.629566 
310 12.6949 22.3581 6.12147 -0.537884 -0.320688 -0.0530503 0.268891 1.01003 0.363052 
287 13.4065 18.7045 6.13978 -0.0489231 0.224965 -0.0891584 -0.111964 0.499708 -0.107825 
286 11.2798 19.8619 6.17171 -0.0556137 0.296787 -0.164621 0.164834 0.0162854 -0.395437 
301 14.8029 21.1832 6.12641 0.0556385 0.0146476 -0.106388 0.4488 0.286769 0.854024 
282 12.6896 19.9221 6.1665 -0.126881 -0.726765 0.0342975 -0.619959 -1.03128 0.866094 
238 19.7763 29.8081 6.09144 -0.119742 0.0816671 -0.000322729 -0.172085 0.62894 -2.17038 
350 13.4008 26.0191 6.03788 -0.261307 0.438655 0.138911 1.86057 0.281197 1.81471 
365 15.5216 27.2873 6.06701 0.246411 0.324328 0.202762 0.803402 -2.28074 0.3099 
363 11.2683 29.6615 6.08557 0.318197 -0.41602 -0.0394391 0.770051 -1.50913 0.622266 
210 10.5625 30.8793 6.09636 -0.0940783 0.038324 -0.041056 0.112997 0.457384 0.155868 
360 9.14076 28.3755 6.06239 0.671346 0.276843 0.09162 1.2753 -0.307608 0.879797 
340 9.14853 25.9282 6.06422 0.356753 -0.314361 0.105282 0.384626 -0.091668 1.01226 
248 19.0648 33.4632 6.07677 -0.219137 0.00601975 0.198664 0.315185 0.0223823 -0.140003 
218 14.8044 30.9577 6.0784 0.483616 -0.337707 0.178709 1.0281 -0.0828212 -1.87215 
253 19.7806 32.2438 6.07946 -0.580373 0.0580524 0.0822975 0.234179 0.705244 0.599641 
345 10.5668 28.4207 6.06359 -0.337733 0.147753 0.157432 0.792469 -0.753133 0.486164 
347 14.8091 26.0665 6.06345 0.00579368 -0.275521 -0.0180093 -0.68068 -0.483489 -0.427498 
327 10.5699 25.9753 6.06455 -0.29286 -0.33412 -0.00767379 0.224258 2.12505 -1.04138 
222 13.4004 30.9224 6.08912 -0.430209 0.0151922 -0.0928914 0.282517 1.27541 0.614495 
366 17.6506 26.1161 6.09404 0.0121706 0.0885173 0.0609102 -0.610668 0.545167 0.805978 
374 9.14705 30.8405 6.06802 0.114006 -0.0470748 0.179115 -0.59712 -0.963196 1.13987 
231 14.8056 33.3911 6.09729 0.411604 0.0588352 -0.00718793 1.57309 -1.04465 0.31555 
211 12.6905 29.6959 6.0677 -0.29018 -0.129769 0.146882 1.6327 -1.21018 0.90927 
346 12.6861 27.2433 6.08779 0.365974 -0.247891 -0.0868678 -0.1626 -0.341194 -0.262247 
216 10.5769 33.3137 6.09743 -0.712272 0.526893 0.0807473 -0.30982 -1.65927 0.10357 
359 8.44405 29.6049 6.07006 -0.129382 -0.132546 0.0545317 -0.937642 -1.44397 0.336491 
371 6.32039 33.2587 6.0957 0.295894 -0.234245 0.0535434 1.26312 -0.595821 1.16424 
357 6.32413 30.8006 6.09424 0.0185795 -0.507075 0.0605025 -0.12538 1.17399 1.20144 
236 15.5244 32.1734 6.09421 -0.0348683 0.40121 0.00277674 1.02397 -1.12621 0.259255 
217 12.6863 32.1404 6.08884 0.160098 -0.0524883 0.0793896 -0.263271 -1.12543 0.297684 
878 15.5313 41.9625 6.07233 -0.154314 0.171884 0.0555145 -0.614949 1.56013 0.0825719 
785 16.9449 39.5414 6.09076 -0.335439 -0.0579724 0.0767852 0.127222 -0.905558 0.0543665 
896 19.7793 42.008 6.07894 0.526528 -0.00203819 0.0736586 -0.209005 -0.42544 -0.193027 
875 19.0786 40.787 6.09423 -0.414468 -0.362013 0.162586 -1.0317 -2.17801 -0.13439 
251 15.5132 34.6199 6.09867 -0.157685 0.379364 0.131978 -0.919832 -2.44138 1.15938 
874 16.9376 41.9885 6.07489 0.752494 -0.492674 -0.00937798 -1.21047 -1.48621 -1.15391 
383 6.32393 38.1676 6.09094 0.115332 -0.102946 -0.00688574 1.80965 -0.175007 0.135478 
384 7.0375 36.9398 6.0947 -0.432499 0.283483 0.225791 -0.59001 -0.666792 -0.279545 
387 7.03193 39.3977 6.08757 -0.143607 0.0179224 0.0801302 -0.611705 0.541615 -0.714662 
260 6.32397 40.6226 6.06895 0.100549 0.261405 0.110949 1.33835 2.44881 0.0122474 
275 7.03295 41.8604 6.07981 -0.165849 -0.390209 -0.00785101 0.26038 0.667712 0.796072 
276 8.44749 41.8753 6.09259 0.115148 0.203708 0.150089 -1.66068 -2.00123 1.18854 
274 6.3263 43.084 6.096 -0.095802 0.130506 -0.0099933 0.303697 -0.236449 1.90436 
370 4.90868 33.2252 6.09765 0 0 0 0 0 0 
356 4.90868 30.7652 6.09765 0 0 0 0 0 0 
336 4.90868 28.3052 6.09765 0 0 0 0 0 0 
316 4.90868 25.8452 6.09765 0 0 0 0 0 0 
372 7.0345 32.0256 6.10168 -0.402663 0.573318 -0.0326716 0.593871 -0.944035 0.199119 
235 13.3997 33.3659 6.10105 -0.291508 0.028892 -0.0374245 1.36623 1.73282 1.32882 
338 7.03424 27.1072 6.14271 -0.296385 0.137404 -0.204157 1.96703 0.802922 -0.562159 
237 17.6392 30.9918 6.11696 0.34647 0.329667 0.105118 1.0232 -0.428414 0.865098 
232 16.9416 32.2217 6.10743 -0.500434 -0.756544 -0.0751518 1.43227 -0.143085 -0.989224 
337 6.32318 28.3332 6.13284 0.0381006 -0.0070274 -0.110965 -0.796263 0.925331 1.57782 
220 19.0574 28.5882 6.09955 0.765614 0.176724 0.0596045 -0.199588 -3.05195 0.657556 
317 6.31803 25.8821 6.10018 0.229773 -0.0891353 0.113636 -0.65742 0.207595 -1.1116 
349 11.2791 27.2028 6.10101 -0.232856 0.0385196 -0.206707 0.901699 -0.17958 -1.11713 
252 17.6441 33.4383 6.10131 0.402097 0.345269 -0.0394817 -0.531656 -1.63242 0.316607 
219 16.9274 29.7707 6.14793 0.295348 -0.187526 -0.107318 0.44569 -0.852259 1.97147 
212 14.8093 28.5067 6.10016 -0.000851193 0.000391069 0.0472867 -0.518437 -1.60307 0.179492 
223 15.5145 29.7358 6.1345 -0.0132189 -0.0193174 -0.157132 1.10547 0.552193 0.179612 
364 13.3968 28.4722 6.10184 -0.0888723 0.0121198 -0.0853796 -1.05246 1.06821 -1.48226 
213 16.9399 27.3318 6.11879 -0.255589 -0.0128948 -0.178346 -0.584171 0.141225 1.10906 
381 9.15542 33.2822 6.10036 0.140843 0.532738 0.0307974 0.168465 -0.551687 1.17597 
214 19.0651 26.1659 6.11443 -0.105843 -0.39256 0.0380281 -0.560445 0.982085 2.77127 
225 19.7847 27.3795 6.09795 0.104665 0.273759 -0.0977653 -1.04011 0.575224 -1.75337 
221 11.2771 32.1039 6.11292 0.0773182 -0.41458 -0.098292 -1.17664 -0.752109 -1.14317 
233 19.0581 31.0225 6.10736 -0.0157442 0.0758311 -0.0488866 -0.0537594 1.60668 1.39619 
224 17.6563 28.5561 6.13252 -0.792012 -0.0108033 -0.0180901 -1.10648 -1.52177 1.19161 
339 8.44553 27.1425 6.09958 -0.250913 0.231044 -0.0794775 -0.770448 1.16917 -0.912411 
373 8.4417 32.0642 6.10388 0.131444 -0.358593 -0.162656 -0.299126 -0.772021 0.174343 
358 7.03054 29.5643 6.10082 -0.186171 0.534855 -0.0212755 -2.27509 -0.944239 -0.672525 
389 9.15275 38.185 6.1635 0.0816493 0.625225 -0.0551495 1.46016 -1.37979 0.562174 
277 9.16274 40.6559 6.13301 -0.495169 -0.459162 -0.13027 0.237322 -1.07263 -1.26766 
385 8.44514 36.9652 6.16033 -0.150333 -0.176951 -0.139213 0.918032 -1.36105 -1.00689 
229 10.5561 35.7634 6.13772 0.0831654 -0.0116399 0.127612 -0.0752899 -0.837584 -1.30891 
259 4.90868 40.6052 6.09765 0 0 0 0 0 0 
386 9.13965 35.7393 6.15027 0.488605 0.0582326 -0.086602 -1.59589 -0.683636 0.218176 
388 8.4427 39.4205 6.13329 0.566004 -0.0789417 0.0236894 0.965812 -1.28435 -1.02474 
273 4.90868 43.0652 6.09765 0 0 0 0 0 0 
234 11.2738 34.547 6.12613 0.205997 0.083214 -0.0712196 -0.589609 -0.10213 -1.78646 
382 4.90868 38.1452 6.09765 0 0 0 0 0 0 
377 4.90868 35.6852 6.09765 0 0 0 0 0 0 
262 12.6908 39.4875 6.10737 0.266081 -0.319339 0.0922491 -0.24422 1.70696 -0.625579 
244 10.5708 38.2046 6.1546 -0.174714 0.818679 0.0135982 0.56518 0.296267 0.556554 
267 13.4007 38.2547 6.10765 -0.419041 0.64729 0.0283941 0.200081 -1.40336 0.449985 
783 12.6858 41.9323 6.13495 0.533822 0.151701 -0.0635213 -0.572852 -0.134592 0.0942558 
879 17.6587 40.7593 6.09879 -0.0650513 0.523192 -0.068147 -0.982402 0.3807 -0.55577 
788 13.4056 40.719 6.12133 0.0756262 -0.385245 -0.00246089 -2.42822 -1.45394 0.410094 
269 17.6308 35.8863 6.12477 0.555921 -0.319853 -0.00480129 0.087664 -1.29788 -2.29795 
799 9.1528 43.1104 6.11963 0.0409248 -0.242314 -0.0733807 -0.0298385 2.57225 -1.08482 
782 10.5702 43.1263 6.10453 -0.15925 -0.066138 0.108981 1.64674 -0.616122 -0.0313398 
247 16.927 34.6563 6.11055 0.0960767 -0.0628714 0.00885086 1.94024 0.120183 -2.59475 