ITEM: TIMESTEP
6400
ITEM: NUMBER OF ATOMS
4798
ITEM: BOX BOUNDS ff ff ff
-10.3577 110.358
-10.0998 131.9
-100.402 112.598
ITEM: ATOMS id x y z fx fy fz vx vy vz 
72 -0.062301 2.4752 6.09765 0 0 0 0 0 0 
110 4.19854 7.39519 6.09765 0 0 0 0 0 0 
109 2.77826 7.39519 6.09765 0 0 0 0 0 0 
93 4.19854 4.9352 6.09765 0 0 0 0 0 0 
92 2.77826 4.9352 6.09765 0 0 0 0 0 0 
91 2.06812 6.16519 6.09765 0 0 0 0 0 0 
87 0.647839 6.16519 6.09765 0 0 0 0 0 0 
86 -0.062301 7.39519 6.09765 0 0 0 0 0 0 
81 4.19854 2.4752 6.09765 0 0 0 0 0 0 
80 2.77826 2.4752 6.09765 0 0 0 0 0 0 
79 2.06812 3.7052 6.09765 0 0 0 0 0 0 
78 0.647839 3.7052 6.09765 0 0 0 0 0 0 
77 -0.062301 4.9352 6.09765 0 0 0 0 0 0 
76 4.19854 0.015197 6.09765 0 0 0 0 0 0 
75 2.77826 0.015197 6.09765 0 0 0 0 0 0 
74 2.06812 1.2452 6.09765 0 0 0 0 0 0 
73 0.647839 1.2452 6.09765 0 0 0 0 0 0 
6 -0.062301 12.3152 6.09765 0 0 0 0 0 0 
131 4.19854 12.3152 6.09765 0 0 0 0 0 0 
130 2.77826 12.3152 6.09765 0 0 0 0 0 0 
124 4.19854 9.85519 6.09765 0 0 0 0 0 0 
123 2.77826 9.85519 6.09765 0 0 0 0 0 0 
122 2.06812 11.0852 6.09765 0 0 0 0 0 0 
117 0.647839 11.0852 6.09765 0 0 0 0 0 0 
108 2.06812 8.62519 6.09765 0 0 0 0 0 0 
100 0.647839 8.62519 6.09765 0 0 0 0 0 0 
99 -0.062301 9.85519 6.09765 0 0 0 0 0 0 
34 4.19854 14.7752 6.09765 0 0 0 0 0 0 
33 2.77826 14.7752 6.09765 0 0 0 0 0 0 
32 2.06812 16.0052 6.09765 0 0 0 0 0 0 
31 0.647839 16.0052 6.09765 0 0 0 0 0 0 
19 2.06812 13.5452 6.09765 0 0 0 0 0 0 
18 0.647839 13.5452 6.09765 0 0 0 0 0 0 
17 -0.062301 14.7752 6.09765 0 0 0 0 0 0 
300 4.19854 24.6152 6.09765 0 0 0 0 0 0 
299 2.77826 24.6152 6.09765 0 0 0 0 0 0 
204 4.19854 22.1552 6.09765 0 0 0 0 0 0 
203 2.77826 22.1552 6.09765 0 0 0 0 0 0 
202 2.06812 23.3852 6.09765 0 0 0 0 0 0 
191 0.647839 23.3852 6.09765 0 0 0 0 0 0 
190 -0.062301 24.6152 6.09765 0 0 0 0 0 0 
71 2.06812 20.9252 6.09765 0 0 0 0 0 0 
70 0.647839 20.9252 6.09765 0 0 0 0 0 0 
69 -0.062301 22.1552 6.09765 0 0 0 0 0 0 
63 4.19854 19.6952 6.09765 0 0 0 0 0 0 
62 2.77826 19.6952 6.09765 0 0 0 0 0 0 
49 4.19854 17.2352 6.09765 0 0 0 0 0 0 
48 2.77826 17.2352 6.09765 0 0 0 0 0 0 
47 2.06812 18.4652 6.09765 0 0 0 0 0 0 
46 0.647839 18.4652 6.09765 0 0 0 0 0 0 
45 -0.062301 19.6952 6.09765 0 0 0 0 0 0 
30 -0.062301 17.2352 6.09765 0 0 0 0 0 0 
355 4.19854 31.9952 6.09765 0 0 0 0 0 0 
354 2.77826 31.9952 6.09765 0 0 0 0 0 0 
353 2.06812 33.2252 6.09765 0 0 0 0 0 0 
344 0.647839 33.2252 6.09765 0 0 0 0 0 0 
335 4.19854 29.5352 6.09765 0 0 0 0 0 0 
334 2.77826 29.5352 6.09765 0 0 0 0 0 0 
333 2.06812 30.7652 6.09765 0 0 0 0 0 0 
326 0.647839 30.7652 6.09765 0 0 0 0 0 0 
325 -0.062301 31.9952 6.09765 0 0 0 0 0 0 
315 4.19854 27.0752 6.09765 0 0 0 0 0 0 
314 2.77826 27.0752 6.09765 0 0 0 0 0 0 
313 2.06812 28.3052 6.09765 0 0 0 0 0 0 
308 0.647839 28.3052 6.09765 0 0 0 0 0 0 
307 -0.062301 29.5352 6.09765 0 0 0 0 0 0 
298 2.06812 25.8452 6.09765 0 0 0 0 0 0 
297 0.647839 25.8452 6.09765 0 0 0 0 0 0 
296 -0.062301 27.0752 6.09765 0 0 0 0 0 0 
215 -0.062301 36.9152 6.09765 0 0 0 0 0 0 
376 4.19854 36.9152 6.09765 0 0 0 0 0 0 
375 2.77826 36.9152 6.09765 0 0 0 0 0 0 
369 4.19854 34.4552 6.09765 0 0 0 0 0 0 
368 2.77826 34.4552 6.09765 0 0 0 0 0 0 
367 2.06812 35.6852 6.09765 0 0 0 0 0 0 
362 0.647839 35.6852 6.09765 0 0 0 0 0 0 
343 -0.062301 34.4552 6.09765 0 0 0 0 0 0 
258 4.19854 41.8352 6.09765 0 0 0 0 0 0 
257 2.77826 41.8352 6.09765 0 0 0 0 0 0 
256 2.06812 43.0652 6.09765 0 0 0 0 0 0 
255 0.647839 43.0652 6.09765 0 0 0 0 0 0 
243 4.19854 39.3752 6.09765 0 0 0 0 0 0 
242 2.77826 39.3752 6.09765 0 0 0 0 0 0 
241 2.06812 40.6052 6.09765 0 0 0 0 0 0 
240 0.647839 40.6052 6.09765 0 0 0 0 0 0 
239 -0.062301 41.8352 6.09765 0 0 0 0 0 0 
228 2.06812 38.1452 6.09765 0 0 0 0 0 0 
227 0.647839 38.1452 6.09765 0 0 0 0 0 0 
226 -0.062301 39.3752 6.09765 0 0 0 0 0 0 
254 -0.062301 44.2952 6.09765 0 0 0 0 0 0 
905 4.19854 51.6752 6.09765 0 0 0 0 0 0 
904 2.77826 51.6752 6.09765 0 0 0 0 0 0 
890 4.19854 49.2152 6.09765 0 0 0 0 0 0 
889 2.77826 49.2152 6.09765 0 0 0 0 0 0 
888 2.06812 50.4452 6.09765 0 0 0 0 0 0 
887 0.647839 50.4452 6.09765 0 0 0 0 0 0 
886 -0.062301 51.6752 6.09765 0 0 0 0 0 0 
794 4.19854 46.7552 6.09765 0 0 0 0 0 0 
793 2.77826 46.7552 6.09765 0 0 0 0 0 0 
792 2.06812 47.9852 6.09765 0 0 0 0 0 0 
781 0.647839 47.9852 6.09765 0 0 0 0 0 0 
780 -0.062301 49.2152 6.09765 0 0 0 0 0 0 
280 2.06812 45.5252 6.09765 0 0 0 0 0 0 
279 0.647839 45.5252 6.09765 0 0 0 0 0 0 
278 -0.062301 46.7552 6.09765 0 0 0 0 0 0 
272 4.19854 44.2952 6.09765 0 0 0 0 0 0 
271 2.77826 44.2952 6.09765 0 0 0 0 0 0 
959 4.19854 59.0552 6.09765 0 0 0 0 0 0 
958 2.77826 59.0552 6.09765 0 0 0 0 0 0 
957 2.06812 60.2852 6.09765 0 0 0 0 0 0 
952 0.647839 60.2852 6.09765 0 0 0 0 0 0 
945 4.19854 56.5952 6.09765 0 0 0 0 0 0 
944 2.77826 56.5952 6.09765 0 0 0 0 0 0 
943 2.06812 57.8252 6.09765 0 0 0 0 0 0 
934 0.647839 57.8252 6.09765 0 0 0 0 0 0 
933 -0.062301 59.0552 6.09765 0 0 0 0 0 0 
925 4.19854 54.1352 6.09765 0 0 0 0 0 0 
924 2.77826 54.1352 6.09765 0 0 0 0 0 0 
923 2.06812 55.3652 6.09765 0 0 0 0 0 0 
916 0.647839 55.3652 6.09765 0 0 0 0 0 0 
915 -0.062301 56.5952 6.09765 0 0 0 0 0 0 
903 2.06812 52.9052 6.09765 0 0 0 0 0 0 
898 0.647839 52.9052 6.09765 0 0 0 0 0 0 
897 -0.062301 54.1352 6.09765 0 0 0 0 0 0 
805 -0.062301 61.5152 6.09765 0 0 0 0 0 0 
966 4.19854 61.5152 6.09765 0 0 0 0 0 0 
965 2.77826 61.5152 6.09765 0 0 0 0 0 0 
862 4.19854 68.8952 6.09765 0 0 0 0 0 0 
861 2.77826 68.8952 6.09765 0 0 0 0 0 0 
848 4.19854 66.4352 6.09765 0 0 0 0 0 0 
847 2.77826 66.4352 6.09765 0 0 0 0 0 0 
846 2.06812 67.6652 6.09765 0 0 0 0 0 0 
845 0.647839 67.6652 6.09765 0 0 0 0 0 0 
844 -0.062301 68.8952 6.09765 0 0 0 0 0 0 
833 4.19854 63.9752 6.09765 0 0 0 0 0 0 
832 2.77826 63.9752 6.09765 0 0 0 0 0 0 
831 2.06812 65.2052 6.09765 0 0 0 0 0 0 
830 0.647839 65.2052 6.09765 0 0 0 0 0 0 
829 -0.062301 66.4352 6.09765 0 0 0 0 0 0 
818 2.06812 62.7452 6.09765 0 0 0 0 0 0 
817 0.647839 62.7452 6.09765 0 0 0 0 0 0 
816 -0.062301 63.9752 6.09765 0 0 0 0 0 0 
1828 4.19854 76.2752 6.09765 0 0 0 0 0 0 
1827 2.77826 76.2752 6.09765 0 0 0 0 0 0 
1826 2.06812 77.5052 6.09765 0 0 0 0 0 0 
1821 0.647839 77.5052 6.09765 0 0 0 0 0 0 
1813 4.19854 73.8152 6.09765 0 0 0 0 0 0 
1812 2.77826 73.8152 6.09765 0 0 0 0 0 0 
1811 2.06812 75.0452 6.09765 0 0 0 0 0 0 
1810 0.647839 75.0452 6.09765 0 0 0 0 0 0 
1809 -0.062301 76.2752 6.09765 0 0 0 0 0 0 
1717 4.19854 71.3552 6.09765 0 0 0 0 0 0 
1716 2.77826 71.3552 6.09765 0 0 0 0 0 0 
1715 2.06812 72.5852 6.09765 0 0 0 0 0 0 
1704 0.647839 72.5852 6.09765 0 0 0 0 0 0 
1703 -0.062301 73.8152 6.09765 0 0 0 0 0 0 
870 2.06812 70.1252 6.09765 0 0 0 0 0 0 
869 0.647839 70.1252 6.09765 0 0 0 0 0 0 
868 -0.062301 71.3552 6.09765 0 0 0 0 0 0 
1728 -0.062301 86.1152 6.09765 0 0 0 0 0 0 
1889 4.19854 86.1152 6.09765 0 0 0 0 0 0 
1888 2.77826 86.1152 6.09765 0 0 0 0 0 0 
1882 4.19854 83.6552 6.09765 0 0 0 0 0 0 
1881 2.77826 83.6552 6.09765 0 0 0 0 0 0 
1880 2.06812 84.8852 6.09765 0 0 0 0 0 0 
1875 0.647839 84.8852 6.09765 0 0 0 0 0 0 
1868 4.19854 81.1952 6.09765 0 0 0 0 0 0 
1867 2.77826 81.1952 6.09765 0 0 0 0 0 0 
1866 2.06812 82.4252 6.09765 0 0 0 0 0 0 
1857 0.647839 82.4252 6.09765 0 0 0 0 0 0 
1856 -0.062301 83.6552 6.09765 0 0 0 0 0 0 
1848 4.19854 78.7352 6.09765 0 0 0 0 0 0 
1847 2.77826 78.7352 6.09765 0 0 0 0 0 0 
1846 2.06812 79.9652 6.09765 0 0 0 0 0 0 
1839 0.647839 79.9652 6.09765 0 0 0 0 0 0 
1838 -0.062301 81.1952 6.09765 0 0 0 0 0 0 
1820 -0.062301 78.7352 6.09765 0 0 0 0 0 0 
1741 2.06812 87.3452 6.09765 0 0 0 0 0 0 
1740 0.647839 87.3452 6.09765 0 0 0 0 0 0 
2677 4.19854 95.9552 6.09765 0 0 0 0 0 0 
2676 2.77826 95.9552 6.09765 0 0 0 0 0 0 
1793 2.06812 94.7252 6.09765 0 0 0 0 0 0 
1792 0.647839 94.7252 6.09765 0 0 0 0 0 0 
1791 -0.062301 95.9552 6.09765 0 0 0 0 0 0 
1785 4.19854 93.4952 6.09765 0 0 0 0 0 0 
1784 2.77826 93.4952 6.09765 0 0 0 0 0 0 
1771 4.19854 91.0352 6.09765 0 0 0 0 0 0 
1770 2.77826 91.0352 6.09765 0 0 0 0 0 0 
1769 2.06812 92.2652 6.09765 0 0 0 0 0 0 
1768 0.647839 92.2652 6.09765 0 0 0 0 0 0 
1767 -0.062301 93.4952 6.09765 0 0 0 0 0 0 
1756 4.19854 88.5752 6.09765 0 0 0 0 0 0 
1755 2.77826 88.5752 6.09765 0 0 0 0 0 0 
1754 2.06812 89.8052 6.09765 0 0 0 0 0 0 
1753 0.647839 89.8052 6.09765 0 0 0 0 0 0 
1752 -0.062301 91.0352 6.09765 0 0 0 0 0 0 
1739 -0.062301 88.5752 6.09765 0 0 0 0 0 0 
2663 -0.062301 98.4152 6.09765 0 0 0 0 0 0 
2808 4.19854 103.335 6.09765 0 0 0 0 0 0 
2807 2.77826 103.335 6.09765 0 0 0 0 0 0 
2806 2.06812 104.565 6.09765 0 0 0 0 0 0 
2799 0.647839 104.565 6.09765 0 0 0 0 0 0 
2788 4.19854 100.875 6.09765 0 0 0 0 0 0 
2787 2.77826 100.875 6.09765 0 0 0 0 0 0 
2786 2.06812 102.105 6.09765 0 0 0 0 0 0 
2781 0.647839 102.105 6.09765 0 0 0 0 0 0 
2780 -0.062301 103.335 6.09765 0 0 0 0 0 0 
2773 4.19854 98.4152 6.09765 0 0 0 0 0 0 
2772 2.77826 98.4152 6.09765 0 0 0 0 0 0 
2771 2.06812 99.6452 6.09765 0 0 0 0 0 0 
2770 0.647839 99.6452 6.09765 0 0 0 0 0 0 
2769 -0.062301 100.875 6.09765 0 0 0 0 0 0 
2675 2.06812 97.1852 6.09765 0 0 0 0 0 0 
2664 0.647839 97.1852 6.09765 0 0 0 0 0 0 
2849 4.19854 110.715 6.09765 0 0 0 0 0 0 
2848 2.77826 110.715 6.09765 0 0 0 0 0 0 
2842 4.19854 108.255 6.09765 0 0 0 0 0 0 
2841 2.77826 108.255 6.09765 0 0 0 0 0 0 
2840 2.06812 109.485 6.09765 0 0 0 0 0 0 
2835 0.647839 109.485 6.09765 0 0 0 0 0 0 
2828 4.19854 105.795 6.09765 0 0 0 0 0 0 
2827 2.77826 105.795 6.09765 0 0 0 0 0 0 
2826 2.06812 107.025 6.09765 0 0 0 0 0 0 
2817 0.647839 107.025 6.09765 0 0 0 0 0 0 
2816 -0.062301 108.255 6.09765 0 0 0 0 0 0 
2798 -0.062301 105.795 6.09765 0 0 0 0 0 0 
2716 4.19854 113.175 6.09765 0 0 0 0 0 0 
2715 2.77826 113.175 6.09765 0 0 0 0 0 0 
2701 2.06812 111.945 6.09765 0 0 0 0 0 0 
2700 0.647839 111.945 6.09765 0 0 0 0 0 0 
2699 -0.062301 113.175 6.09765 0 0 0 0 0 0 
2688 -0.062301 110.715 6.09765 0 0 0 0 0 0 
2712 -0.062301 115.635 6.09765 0 0 0 0 0 0 
3636 4.19854 120.555 6.09765 0 0 0 0 0 0 
3635 2.77826 120.555 6.09765 0 0 0 0 0 0 
3634 2.06812 121.785 6.09765 0 0 0 0 0 0 
3623 0.647839 121.785 6.09765 0 0 0 0 0 0 
2753 2.06812 119.325 6.09765 0 0 0 0 0 0 
2752 0.647839 119.325 6.09765 0 0 0 0 0 0 
2751 -0.062301 120.555 6.09765 0 0 0 0 0 0 
2745 4.19854 118.095 6.09765 0 0 0 0 0 0 
2744 2.77826 118.095 6.09765 0 0 0 0 0 0 
2731 4.19854 115.635 6.09765 0 0 0 0 0 0 
2730 2.77826 115.635 6.09765 0 0 0 0 0 0 
2729 2.06812 116.865 6.09765 0 0 0 0 0 0 
2728 0.647839 116.865 6.09765 0 0 0 0 0 0 
2727 -0.062301 118.095 6.09765 0 0 0 0 0 0 
2714 2.06812 114.405 6.09765 0 0 0 0 0 0 
2713 0.647839 114.405 6.09765 0 0 0 0 0 0 
28 17.7764 6.7117 6.0689 0.370294 -0.407536 0.0794029 1.02753 -0.0736596 0.482984 
90 11.5251 0.445278 6.13342 0.290922 0.009027 -0.0249238 -0.374643 0.176898 1.34437 
96 7.09026 2.5994 6.09756 -0.498445 0.513466 -0.148878 -1.88697 0.801914 -1.21179 
104 17.1797 0.67005 6.11213 -0.49385 -0.255094 -0.0296895 0.585138 -0.100546 2.82471 
106 13.622 1.71703 6.17908 0.0624128 0.241257 -0.0768425 0.54705 -0.492414 0.45266 
105 11.4173 2.82692 6.0866 -0.342678 0.0193721 -0.0173572 -0.386129 0.402094 1.55443 
102 12.8471 2.90018 6.11355 0.0156045 0.0836518 0.00996146 -0.478233 -0.567911 0.523865 
120 15.711 3.01823 6.11317 0.218269 0.0100688 -0.212207 0.00637532 0.65242 0.686542 
88 10.7027 1.59053 6.10928 0.39366 0.333981 -0.0214123 -0.709572 -0.682998 -0.660638 
103 15.0152 1.79112 6.08778 -0.212208 -0.554856 0.0449958 1.47107 0.673414 1.1487 
118 11.368 5.24082 6.08751 0.112281 0.309559 -0.00999637 -1.1262 -0.0908506 0.294118 
115 9.2389 3.93857 6.0661 -0.266684 0.630018 0.0662335 -1.00697 -1.32443 1.5614 
9 14.9218 6.61968 6.10553 -0.148003 0.113177 -0.0996369 -0.241908 -0.00736074 1.69358 
101 10.6556 4.01884 6.08148 0.445638 -0.212218 -0.0622485 0.347006 0.785373 0.661738 
114 8.4922 5.14384 6.07652 -0.0603767 -0.694397 0.0812606 -0.0197106 0.87665 -1.80979 
10 17.0819 5.484 6.10437 -0.164938 -0.241756 -0.0260279 -0.554302 -1.84416 0.821301 
2 12.7876 5.31993 6.10301 0.385243 0.12411 -0.0647122 0.224734 -0.919458 -1.43267 
4 17.1394 3.05384 6.09293 -0.0892692 0.33311 0.259152 0.194793 1.74134 0.449384 
85 8.554 0.338558 6.18219 -0.300734 0.0475494 -0.19639 0.117964 -0.213835 1.32653 
24 19.1965 6.75344 6.05059 -0.382498 0.270062 -0.119487 0.514572 1.69107 1.67589 
121 17.9039 1.86762 6.14004 0.145142 0.360905 -0.0582228 -0.810131 -1.08049 -0.618204 
119 13.5404 4.1299 6.09525 -0.0417171 0.106708 0.0462734 -0.306123 -1.2663 0.767692 
11 19.2385 4.34483 6.09848 -0.226676 0.00725801 0.112268 -0.26762 0.442318 -2.82857 
14 15.6611 5.42232 6.10055 0.222746 0.3878 0.00707405 1.59236 -0.592121 2.72224 
13 13.5031 6.55458 6.1128 -0.347238 -0.749712 -0.0743881 1.48015 -0.31204 0.313523 
15 17.8287 4.2863 6.12319 -0.204645 0.21971 -0.202249 -0.974952 -1.03129 -0.780301 
3 14.9567 4.20845 6.08731 0.141974 -0.435996 0.0591716 1.24175 1.1039 2.07153 
107 15.8067 0.622119 5.96757 0.382617 0.424 0.0542325 -0.284295 2.09819 1.26653 
98 9.30536 1.53617 6.09925 -0.206954 -0.449783 0.124613 0.486373 1.26237 -0.367452 
97 8.52993 2.71804 6.09278 -0.117632 -0.316924 0.0237863 0.564635 0.603526 -1.65184 
95 6.33835 3.802 6.11415 0.301705 0.101875 -0.060519 0.268906 0.357681 -1.14792 
113 7.06595 5.04538 6.10091 -0.163563 -0.257381 0.0124494 2.28039 -0.126968 -1.35035 
1 10.6331 6.44431 6.07927 -0.33661 -0.137319 0.10127 0.114588 -0.817514 0.586381 
129 9.20692 6.36553 6.0902 0.40411 -0.0936705 -0.0764934 1.4843 1.46839 -0.666823 
127 7.04726 7.48223 6.09345 0.384037 -0.266855 0.0315722 0.364935 -0.654294 0.667107 
128 8.47226 7.55875 6.09628 -0.267506 0.448635 -0.0602213 0.0846343 0.49125 1.24969 
112 6.32412 6.24777 6.10075 0.386711 0.027574 0.00537431 -0.697963 2.38434 1.10983 
94 4.90868 3.7052 6.09765 0 0 0 0 0 0 
111 4.90868 6.16519 6.09765 0 0 0 0 0 0 
82 4.90868 1.2452 6.09765 0 0 0 0 0 0 
89 12.8896 0.526992 6.33327 -0.326513 -0.135224 -0.0123112 -0.640422 1.35275 0.891714 
5 19.2937 1.9312 6.21138 -0.604391 -0.235463 -0.0149724 0.0906017 2.12733 -2.40491 
84 7.1905 0.222005 5.94331 0.306038 0.279995 0.0718884 -1.99093 -1.14452 -1.20135 
83 6.34565 1.36461 6.03049 0.108978 -0.343287 0.233377 -0.552022 1.11416 -0.214186 
51 6.321 16.0652 6.12168 -0.0808506 -0.527222 -0.126909 1.19173 -0.697909 0.23756 
144 9.16738 13.6894 6.10078 0.301173 -0.104879 -0.0185711 -1.12802 0.598099 -0.0928076 
140 8.45851 12.4602 6.11645 -0.216052 -0.278697 0.0602607 1.01792 -0.494475 1.63725 
35 10.5907 13.7356 6.101 -0.596844 0.685752 -0.0415005 -0.0941663 1.33428 0.59865 
40 11.3034 12.5311 6.12307 0.0295791 -0.0779926 0.0535643 2.004 -1.57824 0.654139 
57 11.2951 14.9748 6.08375 -0.550723 -0.182774 0.0885849 -0.816391 1.37986 -0.0266296 
27 15.619 7.8532 6.06546 0.228206 -0.400145 0.241524 0.529089 1.30904 1.88358 
23 17.0431 7.90152 6.10239 -0.589708 0.07459 -0.366406 1.78008 -0.13808 -1.03403 
39 19.1683 9.16547 6.00487 -0.775138 0.319697 -0.109615 -1.61585 0.708067 -2.08135 
43 17.74 9.12054 6.02898 0.59577 -0.158583 0.112739 0.438202 1.46908 -0.206331 
68 9.15769 16.1255 6.07894 0.285396 0.0728235 0.0657994 -0.911874 0.394327 -0.322456 
56 19.1319 11.5867 6.03709 -0.100653 0.000598427 -0.068942 -0.141504 0.694345 0.197497 
42 15.5766 10.2601 6.05737 0.699514 0.270474 0.001858 0.285262 -1.02174 0.98171 
285 19.0838 16.4349 6.15477 -0.0594336 -0.169561 0.0213649 -0.338651 -0.626255 1.4009 
26 13.461 8.97579 6.09946 -0.393547 -0.349753 -0.0277121 1.39056 -1.46195 -0.818639 
22 14.8743 9.04396 6.07946 -0.0119434 -0.245773 -0.00398679 0.294968 3.58747 -0.587662 
195 16.9638 15.1533 6.10208 -0.162232 0.301006 0.172037 -1.83617 1.26414 0.546249 
53 12.698 15.0291 6.0993 0.483028 0.112288 0.0518477 -0.942387 1.44823 -1.55931 
289 17.6688 16.3798 6.1706 0.0145809 -0.159833 -0.187427 -0.98726 -0.0560715 -0.718781 
58 13.4242 13.8283 6.13627 -0.27147 -0.191328 -0.131654 -0.854347 1.00286 -2.24159 
41 13.4449 11.4044 6.07755 -0.187247 -0.254602 0.27048 0.198054 0.273769 1.62268 
199 15.5473 15.1065 6.13339 0.348481 0.216641 -0.0865725 -1.08488 -1.09207 -0.269484 
21 12.7225 10.1791 6.11678 0.570478 -0.206161 -0.123602 -1.58725 1.84485 0.21418 
37 14.8612 11.4674 6.08821 -0.337331 -0.189136 -0.121183 -0.343014 -1.31029 0.892762 
54 14.8312 13.8945 6.11593 0.522878 -0.600252 0.0572714 -1.45579 -2.09547 -0.0225083 
200 17.6907 13.9556 6.0628 0.189244 -0.162745 0.253263 0.0703135 -0.901201 1.96994 
55 16.9849 12.7338 6.08544 -0.0668845 0.0551378 -0.106186 0.365405 -0.605257 1.98033 
59 15.5707 12.6869 6.0878 -0.245157 0.238774 0.00755249 1.2856 -0.809589 1.21487 
141 9.17403 11.2471 6.16246 -0.0812363 -0.1066 -0.196644 1.65689 -0.618961 -0.00213799 
20 10.5824 11.3095 6.13719 0.406762 -0.295812 0.123635 0.637265 2.00049 -1.36352 
138 6.32176 13.6104 6.10339 0.157544 -0.301708 0.0327357 0.659962 1.34953 -3.1416 
194 14.8298 16.3139 6.12791 -0.157143 -0.153438 0.0160541 1.3531 -0.863951 -0.355986 
38 17.0008 10.3074 6.03799 -0.128552 0.557066 0.0314303 -1.65112 0.835158 2.60931 
52 10.57 16.186 6.08686 -0.00841424 -0.333862 0.013663 0.121739 -1.09717 -0.743567 
8 12.7477 7.73253 6.09123 0.795892 1.12551 0.0984983 -0.0895569 -2.77901 -0.470208 
60 17.7146 11.5335 6.04924 -0.0759854 -0.168371 -0.0154263 1.13393 -0.429264 -0.594719 
198 13.4184 16.2459 6.1076 -0.137807 0.305639 0.0203069 -2.51328 -0.843554 0.617551 
36 12.7136 12.6013 6.14544 0.221742 0.0872132 -0.199761 0.54721 0.501974 -1.22327 
7 10.6035 8.86164 6.10077 0.0587286 0.60624 0.0401407 1.80798 0.223195 0.795513 
12 11.3415 7.67322 6.09614 -0.273806 -0.580965 -0.0981911 -1.26718 -1.45554 0.141762 
136 9.1858 8.79415 6.09447 0.149622 0.000201367 0.114184 0.836005 -2.35407 1.62585 
196 19.106 14.0048 6.09486 0.00412176 0.300454 -0.0687524 0.211372 0.908528 3.11034 
25 11.3128 10.0976 6.13939 -0.354375 0.159779 -0.176761 -1.94547 -2.8065 0.220182 
139 7.04456 12.3897 6.1111 -0.387711 0.0195864 -0.019636 -1.57462 -0.446013 0.728432 
142 7.03458 14.8423 6.10752 -0.0176077 0.178994 -0.0366974 -1.54266 -0.110895 -0.230665 
143 8.44967 14.902 6.0902 -0.0967924 -0.254504 0.0080252 0.481512 1.84172 -1.63685 
292 6.33097 23.4223 6.08847 -0.816936 0.390037 0.116166 -1.80615 0.819699 -1.28553 
330 11.2626 24.7372 6.13955 0.100372 0.380929 -0.0521375 -1.63215 -0.110507 1.37883 
318 7.01653 24.6639 6.10239 0.102568 0.0838783 0.0504034 -0.639592 1.8173 -1.042 
206 6.32196 20.9693 6.10203 -0.130779 0.140424 -0.0267236 0.855283 0.416115 -0.891167 
293 7.02207 22.2066 6.12009 0.382711 -0.448556 -0.152761 -1.00837 -0.206989 -0.841681 
66 7.03118 17.2864 6.1021 0.29251 0.561115 0.0164471 0.536117 0.562606 0.438163 
207 7.02796 19.7524 6.09415 0.108914 -0.427558 -0.0814988 1.00001 0.405559 -1.9331 
331 13.3801 23.5751 6.10482 0.211695 -0.280237 0.0252502 0.137693 0.68529 0.991414 
65 6.3261 18.5124 6.10019 -0.119609 -0.0537917 -0.00496827 -0.642024 -0.0308052 0.944007 
294 8.43682 22.241 6.11051 -0.162353 -0.050557 0.113944 1.08303 0.589943 2.35011 
208 8.44269 19.786 6.0627 0.00582333 0.335246 0.227517 0.44788 2.24598 -1.58273 
348 16.9279 24.9013 6.10134 -0.0959693 -0.0119585 0.104447 0.0451075 0.761399 -0.681724 
351 15.519 24.844 6.14185 -0.350949 0.152536 -0.234018 0.585141 -1.30655 0.531964 
295 9.14901 21.0228 6.10029 -0.493907 -0.109661 -0.0267049 0.65967 -0.0258572 1.56006 
319 8.42598 24.7102 6.11191 0.215804 -0.777223 0.169983 0.746158 -0.0771255 0.66522 
320 9.13193 23.476 6.14678 0.201191 0.44985 -0.236036 -1.13229 -0.274574 1.75808 
309 10.5504 23.5163 6.12907 -0.178503 -0.171349 0.119275 0.617646 -0.191895 0.35829 
304 15.524 19.9611 6.11083 -0.467554 -0.0693137 0.0312581 1.66572 1.6603 2.93069 
328 12.6736 24.7926 6.09739 0.044408 -0.095449 0.146244 -0.595015 -0.10091 -1.30605 
311 11.2608 22.2987 6.13411 -0.0743187 -0.190543 -0.0808573 0.312912 -0.808914 -0.554832 
303 19.0646 18.8605 6.15207 -0.179499 0.129065 0.0114606 1.75815 -0.0510931 -1.81669 
288 15.5247 17.5447 6.15332 0.344603 -0.637419 -0.0261764 1.70228 0.670033 -1.11137 
284 16.9415 17.5831 6.17296 -0.0682493 0.239499 0.0011055 -0.148154 1.26541 -0.895505 
306 19.7815 17.6588 6.15093 0.156794 -0.168096 0.078565 -0.550653 -0.364459 0.260146 
321 16.9169 22.4486 6.1171 0.363594 0.775263 -0.183533 -0.9276 -0.246407 -0.179644 
323 17.637 21.2481 6.14944 0.17626 -0.506148 -0.0103582 -1.94346 -1.01376 -0.812778 
302 16.9319 20.0156 6.1543 0.201212 0.0517204 -0.0372875 1.16603 1.82568 -1.16049 
352 17.6325 23.6879 6.07285 0.0668213 -0.64263 0.321917 0.722108 -1.59324 0.719119 
322 19.0522 21.2896 6.15751 -0.295702 0.188467 -0.0472405 -2.16641 -1.78183 0.957875 
305 17.6543 18.8054 6.16306 -0.0754222 0.22912 -0.0167513 -0.91141 0.0461642 -0.508645 
197 11.2796 17.409 6.10719 0.0562962 0.307059 -0.0107494 -1.11067 -0.199094 1.28516 
193 12.6955 17.4526 6.10498 -0.203496 0.375169 0.0649482 -0.0286031 -0.437104 2.19645 
324 19.7676 20.0842 6.13299 0.703816 -0.00268076 0.163361 -0.0203931 -1.08919 0.710888 
137 4.90868 13.5452 6.09765 0 0 0 0 0 0 
132 4.90868 11.0852 6.09765 0 0 0 0 0 0 
125 4.90868 8.62519 6.09765 0 0 0 0 0 0 
50 4.90868 16.0052 6.09765 0 0 0 0 0 0 
126 6.33361 8.69078 6.09929 -0.440735 0.399705 0.0519804 0.541426 2.01594 0.321052 
135 8.47039 10.01 6.12949 -0.671688 -0.199072 0.0348073 -1.02343 -0.0420656 0.934312 
134 7.03975 9.93218 6.12904 0.596771 0.0423817 -0.053341 -2.08911 0.16688 1.26056 
133 6.32516 11.1473 6.11816 0.0902047 0.333694 -0.0522747 -1.41149 0.436863 -1.10049 
332 15.5106 22.4038 6.08285 -0.253259 -0.189433 0.0725789 0.254638 0.910665 -1.18741 
192 10.5608 18.6287 6.12411 0.513691 -0.348479 -0.0736216 -0.23469 0.650972 0.918008 
209 9.15921 18.5733 6.10753 -0.627808 -0.164525 -0.0910783 0.16539 2.48625 -0.390081 
64 4.90868 18.4652 6.09765 0 0 0 0 0 0 
291 4.90868 23.3852 6.09765 0 0 0 0 0 0 
205 4.90868 20.9252 6.09765 0 0 0 0 0 0 
341 19.046 23.7269 6.13417 0.0277347 -0.299736 -0.115152 0.142876 -0.936937 0.391232 
281 10.5509 21.0657 6.12682 0.398424 0.364797 -0.0363308 -2.70951 -2.18629 2.39491 
283 14.7976 18.7379 6.13089 0.26697 0.677494 0.0495409 -0.452943 0.37121 1.93504 
329 14.7974 23.6194 6.10366 -0.0207877 0.01606 0.0537356 0.996415 0.83362 -0.269312 
361 19.7658 24.941 6.12974 0.196454 0.121964 0.00672616 -0.263098 1.11174 -0.208598 
312 13.389 21.1211 6.08084 -0.110027 -0.0176085 0.0542374 -0.343793 -1.71293 -0.331372 
67 8.44907 17.3379 6.09168 -0.252237 0.256229 0.00399548 -0.544886 -1.50365 -1.85018 
342 19.7613 22.5111 6.15472 0.0717568 0.140815 -0.0542386 -1.02816 -0.36011 0.249968 
310 12.6738 22.335 6.11119 0.160411 0.48397 -0.0278724 -1.81064 1.22971 -1.36745 
287 13.3857 18.6921 6.13195 0.0784282 -0.333393 -0.137427 -1.89311 -0.217958 2.68466 
286 11.2647 19.8577 6.12164 -0.272974 -0.259085 0.0412671 2.08524 0.78297 0.378544 
301 14.8044 21.1694 6.06822 -0.147103 0.27976 0.0916273 0.494648 0.835579 0.112407 
282 12.6656 19.8992 6.11331 0.624043 0.202539 -0.012224 0.508609 -1.73137 1.2278 
238 19.7651 29.8074 6.09207 0.36522 -0.173246 0.130392 -1.4322 1.45311 -2.85111 
350 13.3957 26.0179 6.12656 -0.549725 0.0962053 -0.000865902 -0.242736 -0.796607 -0.200242 
365 15.5187 27.2868 6.13405 -0.0747615 0.161186 0.123858 0.171848 0.427795 -0.588425 
363 11.27 29.6451 6.12854 0.0188279 -0.306259 -0.0896533 1.03969 1.09332 -0.111658 
210 10.5633 30.8622 6.08476 0.130118 0.369495 -0.0494014 -1.33049 -1.05652 0.145729 
360 9.14691 28.3835 6.11941 -0.289139 0.0803513 -0.0314801 -0.277298 0.996385 0.116908 
340 9.136 25.9312 6.14619 0.5382 0.158968 -0.0297539 1.45432 0.319909 1.14617 
248 19.0502 33.4453 6.06965 0.117907 0.258316 0.0176181 -1.24886 -0.864874 -0.00651709 
218 14.7992 30.9574 6.13677 0.122207 -0.539847 0.119094 0.588132 0.44538 2.19264 
253 19.768 32.2315 6.07538 0.032227 0.0849075 0.110631 -1.87151 -2.00763 -1.27236 
345 10.5587 28.4109 6.13646 -0.020506 0.502051 0.110567 0.191585 2.28827 -0.231655 
347 14.804 26.0613 6.13546 0.202099 -0.0431492 0.0292157 -1.40293 1.44089 -1.40857 
327 10.559 25.9565 6.16449 -0.304807 0.55724 0.00142894 -0.443818 -1.16857 0.769143 
222 13.3915 30.9083 6.119 -0.261514 0.0464239 0.0160449 0.139275 1.33095 -0.83916 
366 17.6436 26.1251 6.11778 -0.00919062 -0.455445 0.034858 0.0809479 -0.53368 0.781182 
374 9.1548 30.8449 6.06406 -0.464698 -0.455004 0.128557 -0.0885772 -0.269765 0.547528 
231 14.8068 33.3898 6.08631 -0.213407 0.217732 0.0653004 -0.306712 1.93801 -0.194727 
211 12.685 29.6778 6.13392 0.106714 0.114144 -0.031847 0.711173 -0.227863 1.30025 
346 12.6785 27.2406 6.15729 0.413021 -0.122623 -0.00633682 -1.95191 -1.11476 -0.101234 
216 10.5735 33.3241 6.07457 -0.565479 -0.177287 0.0168571 -1.87954 -0.51719 1.32925 
359 8.43342 29.6086 6.09208 0.297684 0.14297 -0.0567392 0.78526 -0.843447 -1.12957 
371 6.32609 33.2595 6.07596 -0.130292 -0.347402 0.151328 0.0773687 0.943561 -1.5105 
357 6.31129 30.7956 6.06531 0.440568 0.17083 0.10369 0.137708 -0.418972 3.52519 
236 15.5099 32.1738 6.1506 0.30768 0.149886 -0.223542 -1.0043 -0.75 0.573956 
217 12.677 32.1236 6.07707 0.275204 0.204117 0.0482057 0.654377 -0.14699 -0.221819 
878 15.5333 41.9337 6.02837 -0.367899 0.189485 0.162358 0.578198 0.531461 -1.51521 
785 16.9491 39.508 6.02254 -0.75543 0.314904 0.0771341 -0.140982 -1.12751 1.39206 
896 19.7762 41.9978 6.05638 0.126283 -0.375801 0.0369597 2.90503 -1.49862 -0.20124 
875 19.0574 40.7744 6.04699 0.181666 -0.124874 0.144655 0.187534 -1.37665 0.795267 
251 15.5223 34.6152 6.05739 -0.384025 0.133019 -0.0540146 0.909083 1.13493 1.26412 
874 16.9444 41.9679 6.05194 -0.0054956 -0.264348 -0.0263931 -1.40166 -0.372898 -0.770946 
383 6.31591 38.1606 6.0783 0.482358 0.334309 -0.0305914 0.662079 0.00782276 -1.84505 
384 7.03057 36.9439 6.09097 0.102254 -0.0844229 0.0372375 -0.318001 -0.0490734 -0.0912416 
387 7.03296 39.3907 6.05684 -0.341197 -0.0140077 0.0559311 -0.123515 1.91504 1.34869 
260 6.32164 40.6143 6.07583 0.191015 0.300619 -0.00635137 -0.916038 1.84078 0.485424 
275 7.02963 41.853 6.06837 0.285367 -0.374201 0.0588238 0.959237 -0.915991 -1.24612 
276 8.45507 41.8646 6.06553 -0.540371 0.178429 0.0813026 0.18277 2.10869 1.70539 
274 6.32147 43.0732 6.11001 0.0619671 0.286354 -0.101406 0.1528 1.10362 -0.281327 
370 4.90868 33.2252 6.09765 0 0 0 0 0 0 
356 4.90868 30.7652 6.09765 0 0 0 0 0 0 
336 4.90868 28.3052 6.09765 0 0 0 0 0 0 
316 4.90868 25.8452 6.09765 0 0 0 0 0 0 
372 7.02762 32.024 6.07364 0.0382924 0.336616 0.0033891 -2.94061 1.1377 -0.189949 
235 13.3899 33.3552 6.0805 0.229944 -0.236867 -0.0265242 -1.50863 2.14564 -0.299816 
338 7.01693 27.1062 6.14312 0.485506 0.853047 -0.152477 1.59819 -0.206283 0.646052 
237 17.6374 30.9934 6.12379 -0.0811456 -0.0117981 0.0679047 1.43845 3.04666 -0.655768 
232 16.9233 32.212 6.11468 -0.0143592 -0.25677 0.0520878 -0.941685 -0.494679 -0.391844 
337 6.31881 28.3358 6.11356 0.0401082 0.0340161 -0.0678833 1.28115 -1.16003 1.38445 
220 19.0497 28.591 6.11444 0.596777 -0.4394 0.046218 -1.30927 0.544254 0.485402 
317 6.31923 25.8888 6.12328 -0.403267 -0.610319 -0.0926593 2.34385 0.940569 0.189698 
349 11.2666 27.1986 6.1822 -0.0699592 -0.557615 -0.202915 0.829154 -0.426941 -0.788475 
252 17.6362 33.4302 6.08375 0.0963169 0.125227 -0.0468776 -0.559248 0.058209 0.750567 
219 16.9187 29.7757 6.1456 0.688348 -0.610698 -0.0348288 2.31127 0.963684 0.817908 
212 14.8133 28.5085 6.15615 -0.0949786 -0.211651 -0.0164366 0.453686 -1.3203 1.00709 
223 15.514 29.7366 6.17322 -0.287824 0.176197 -0.136437 0.839649 1.28902 2.07049 
364 13.406 28.4643 6.14439 -0.644151 -0.0996271 0.0988493 -0.350565 0.850568 -1.45496 
213 16.9277 27.3305 6.14514 0.103506 0.0860745 -0.194408 -0.744487 0.538832 -0.971623 
381 9.14844 33.2893 6.09945 0.487916 0.617548 -0.200212 1.4415 0.194536 0.622433 
214 19.0565 26.1567 6.13685 -0.0144206 -0.0195959 -0.0448339 1.80589 1.72032 1.22244 
225 19.7781 27.372 6.13167 0.0199485 0.374603 -0.107106 1.34781 3.46445 0.00636762 
221 11.2663 32.0981 6.07058 0.105325 -0.260447 0.0425547 -0.781806 1.91814 -0.806067 
233 19.0493 31.0112 6.11497 0.0938796 0.539015 -0.132366 -1.61238 -0.540236 -1.45125 
224 17.6431 28.5479 6.11499 -0.534022 0.661966 0.192804 -1.0509 0.582857 0.223342 
339 8.43276 27.1555 6.13143 -0.0112244 -0.125722 0.0914108 0.189413 0.564457 0.172701 
373 8.44571 32.0674 6.08262 -0.233806 -0.437971 -0.0251968 0.626636 -0.36878 -1.12811 
358 7.01689 29.5751 6.07949 0.215607 -0.251456 0.0652715 0.0135197 0.841524 -0.22643 
389 9.14745 38.2034 6.05455 0.206413 -0.22217 0.0518572 0.581151 0.503702 0.532537 
277 9.15459 40.6417 6.0844 -0.148366 0.0102496 -0.0504713 0.19792 1.31498 -0.625063 
385 8.45012 36.9773 6.07967 -0.479333 -0.336659 -0.036078 -0.0372776 0.225934 -1.2244 
229 10.5568 35.7647 6.0644 0.511725 -0.0267574 0.137463 0.321102 -1.47974 -0.326599 
259 4.90868 40.6052 6.09765 0 0 0 0 0 0 
386 9.14815 35.749 6.07751 0.0693605 0.061922 -0.0409013 0.0126934 -0.339255 -0.185448 
388 8.44366 39.4179 6.0567 -0.0204091 0.249567 0.0290659 0.48264 0.0918937 1.03242 
273 4.90868 43.0652 6.09765 0 0 0 0 0 0 
234 11.2858 34.5486 6.07068 -0.766409 0.127753 0.0154403 0.601363 0.315258 -3.03664 
382 4.90868 38.1452 6.09765 0 0 0 0 0 0 
377 4.90868 35.6852 6.09765 0 0 0 0 0 0 
262 12.6921 39.4739 6.07354 0.222072 -0.440175 0.0978491 0.241465 1.79716 -0.0291731 
244 10.5589 38.2127 6.06653 0.424751 0.49674 0.139315 0.417183 -1.05471 -0.112173 
267 13.3988 38.241 6.08428 0.0126582 0.413026 -0.0925016 0.340491 -1.99972 1.0722 
783 12.695 41.9223 6.12024 0.417453 -0.307718 -0.087864 -0.734864 -0.520721 -0.517805 
879 17.6442 40.7361 6.05061 0.263121 0.531189 -0.0888728 -0.274122 0.389465 -0.752728 
788 13.4025 40.6971 6.10025 0.230393 0.083266 -0.241905 -1.15909 -0.558827 -0.625039 
269 17.6358 35.8661 6.06731 0.560241 -0.161301 0.0837312 -0.0576798 2.46465 0.705312 
799 9.16053 43.0927 6.09662 -0.0384798 0.0174997 -0.0247113 -0.861689 0.830578 -0.918251 
782 10.5761 43.1107 6.1165 0.0233726 -0.0621202 -0.00851519 -0.632011 -0.37674 0.381383 
247 16.9289 34.6519 6.04428 0.100371 -0.536108 0.151784 -0.193938 3.68542 -1.13487 
246 14.8108 35.8394 6.02871 -0.175048 -0.674485 0.0545792 -0.749461 -1.0618 -1.24422 