ITEM: TIMESTEP
6000
ITEM: NUMBER OF ATOMS
4798
ITEM: BOX BOUNDS ff ff ff
-10.3577 110.358
-10.0998 131.9
-100.402 112.598
ITEM: ATOMS id x y z fx fy fz vx vy vz 
72 -0.062301 2.4752 6.09765 0 0 0 0 0 0 
110 4.19854 7.39519 6.09765 0 0 0 0 0 0 
109 2.77826 7.39519 6.09765 0 0 0 0 0 0 
93 4.19854 4.9352 6.09765 0 0 0 0 0 0 
92 2.77826 4.9352 6.09765 0 0 0 0 0 0 
91 2.06812 6.16519 6.09765 0 0 0 0 0 0 
87 0.647839 6.16519 6.09765 0 0 0 0 0 0 
86 -0.062301 7.39519 6.09765 0 0 0 0 0 0 
81 4.19854 2.4752 6.09765 0 0 0 0 0 0 
80 2.77826 2.4752 6.09765 0 0 0 0 0 0 
79 2.06812 3.7052 6.09765 0 0 0 0 0 0 
78 0.647839 3.7052 6.09765 0 0 0 0 0 0 
77 -0.062301 4.9352 6.09765 0 0 0 0 0 0 
76 4.19854 0.015197 6.09765 0 0 0 0 0 0 
75 2.77826 0.015197 6.09765 0 0 0 0 0 0 
74 2.06812 1.2452 6.09765 0 0 0 0 0 0 
73 0.647839 1.2452 6.09765 0 0 0 0 0 0 
6 -0.062301 12.3152 6.09765 0 0 0 0 0 0 
131 4.19854 12.3152 6.09765 0 0 0 0 0 0 
130 2.77826 12.3152 6.09765 0 0 0 0 0 0 
124 4.19854 9.85519 6.09765 0 0 0 0 0 0 
123 2.77826 9.85519 6.09765 0 0 0 0 0 0 
122 2.06812 11.0852 6.09765 0 0 0 0 0 0 
117 0.647839 11.0852 6.09765 0 0 0 0 0 0 
108 2.06812 8.62519 6.09765 0 0 0 0 0 0 
100 0.647839 8.62519 6.09765 0 0 0 0 0 0 
99 -0.062301 9.85519 6.09765 0 0 0 0 0 0 
34 4.19854 14.7752 6.09765 0 0 0 0 0 0 
33 2.77826 14.7752 6.09765 0 0 0 0 0 0 
32 2.06812 16.0052 6.09765 0 0 0 0 0 0 
31 0.647839 16.0052 6.09765 0 0 0 0 0 0 
19 2.06812 13.5452 6.09765 0 0 0 0 0 0 
18 0.647839 13.5452 6.09765 0 0 0 0 0 0 
17 -0.062301 14.7752 6.09765 0 0 0 0 0 0 
300 4.19854 24.6152 6.09765 0 0 0 0 0 0 
299 2.77826 24.6152 6.09765 0 0 0 0 0 0 
204 4.19854 22.1552 6.09765 0 0 0 0 0 0 
203 2.77826 22.1552 6.09765 0 0 0 0 0 0 
202 2.06812 23.3852 6.09765 0 0 0 0 0 0 
191 0.647839 23.3852 6.09765 0 0 0 0 0 0 
190 -0.062301 24.6152 6.09765 0 0 0 0 0 0 
71 2.06812 20.9252 6.09765 0 0 0 0 0 0 
70 0.647839 20.9252 6.09765 0 0 0 0 0 0 
69 -0.062301 22.1552 6.09765 0 0 0 0 0 0 
63 4.19854 19.6952 6.09765 0 0 0 0 0 0 
62 2.77826 19.6952 6.09765 0 0 0 0 0 0 
49 4.19854 17.2352 6.09765 0 0 0 0 0 0 
48 2.77826 17.2352 6.09765 0 0 0 0 0 0 
47 2.06812 18.4652 6.09765 0 0 0 0 0 0 
46 0.647839 18.4652 6.09765 0 0 0 0 0 0 
45 -0.062301 19.6952 6.09765 0 0 0 0 0 0 
30 -0.062301 17.2352 6.09765 0 0 0 0 0 0 
355 4.19854 31.9952 6.09765 0 0 0 0 0 0 
354 2.77826 31.9952 6.09765 0 0 0 0 0 0 
353 2.06812 33.2252 6.09765 0 0 0 0 0 0 
344 0.647839 33.2252 6.09765 0 0 0 0 0 0 
335 4.19854 29.5352 6.09765 0 0 0 0 0 0 
334 2.77826 29.5352 6.09765 0 0 0 0 0 0 
333 2.06812 30.7652 6.09765 0 0 0 0 0 0 
326 0.647839 30.7652 6.09765 0 0 0 0 0 0 
325 -0.062301 31.9952 6.09765 0 0 0 0 0 0 
315 4.19854 27.0752 6.09765 0 0 0 0 0 0 
314 2.77826 27.0752 6.09765 0 0 0 0 0 0 
313 2.06812 28.3052 6.09765 0 0 0 0 0 0 
308 0.647839 28.3052 6.09765 0 0 0 0 0 0 
307 -0.062301 29.5352 6.09765 0 0 0 0 0 0 
298 2.06812 25.8452 6.09765 0 0 0 0 0 0 
297 0.647839 25.8452 6.09765 0 0 0 0 0 0 
296 -0.062301 27.0752 6.09765 0 0 0 0 0 0 
215 -0.062301 36.9152 6.09765 0 0 0 0 0 0 
376 4.19854 36.9152 6.09765 0 0 0 0 0 0 
375 2.77826 36.9152 6.09765 0 0 0 0 0 0 
369 4.19854 34.4552 6.09765 0 0 0 0 0 0 
368 2.77826 34.4552 6.09765 0 0 0 0 0 0 
367 2.06812 35.6852 6.09765 0 0 0 0 0 0 
362 0.647839 35.6852 6.09765 0 0 0 0 0 0 
343 -0.062301 34.4552 6.09765 0 0 0 0 0 0 
258 4.19854 41.8352 6.09765 0 0 0 0 0 0 
257 2.77826 41.8352 6.09765 0 0 0 0 0 0 
256 2.06812 43.0652 6.09765 0 0 0 0 0 0 
255 0.647839 43.0652 6.09765 0 0 0 0 0 0 
243 4.19854 39.3752 6.09765 0 0 0 0 0 0 
242 2.77826 39.3752 6.09765 0 0 0 0 0 0 
241 2.06812 40.6052 6.09765 0 0 0 0 0 0 
240 0.647839 40.6052 6.09765 0 0 0 0 0 0 
239 -0.062301 41.8352 6.09765 0 0 0 0 0 0 
228 2.06812 38.1452 6.09765 0 0 0 0 0 0 
227 0.647839 38.1452 6.09765 0 0 0 0 0 0 
226 -0.062301 39.3752 6.09765 0 0 0 0 0 0 
254 -0.062301 44.2952 6.09765 0 0 0 0 0 0 
905 4.19854 51.6752 6.09765 0 0 0 0 0 0 
904 2.77826 51.6752 6.09765 0 0 0 0 0 0 
890 4.19854 49.2152 6.09765 0 0 0 0 0 0 
889 2.77826 49.2152 6.09765 0 0 0 0 0 0 
888 2.06812 50.4452 6.09765 0 0 0 0 0 0 
887 0.647839 50.4452 6.09765 0 0 0 0 0 0 
886 -0.062301 51.6752 6.09765 0 0 0 0 0 0 
794 4.19854 46.7552 6.09765 0 0 0 0 0 0 
793 2.77826 46.7552 6.09765 0 0 0 0 0 0 
792 2.06812 47.9852 6.09765 0 0 0 0 0 0 
781 0.647839 47.9852 6.09765 0 0 0 0 0 0 
780 -0.062301 49.2152 6.09765 0 0 0 0 0 0 
280 2.06812 45.5252 6.09765 0 0 0 0 0 0 
279 0.647839 45.5252 6.09765 0 0 0 0 0 0 
278 -0.062301 46.7552 6.09765 0 0 0 0 0 0 
272 4.19854 44.2952 6.09765 0 0 0 0 0 0 
271 2.77826 44.2952 6.09765 0 0 0 0 0 0 
959 4.19854 59.0552 6.09765 0 0 0 0 0 0 
958 2.77826 59.0552 6.09765 0 0 0 0 0 0 
957 2.06812 60.2852 6.09765 0 0 0 0 0 0 
952 0.647839 60.2852 6.09765 0 0 0 0 0 0 
945 4.19854 56.5952 6.09765 0 0 0 0 0 0 
944 2.77826 56.5952 6.09765 0 0 0 0 0 0 
943 2.06812 57.8252 6.09765 0 0 0 0 0 0 
934 0.647839 57.8252 6.09765 0 0 0 0 0 0 
933 -0.062301 59.0552 6.09765 0 0 0 0 0 0 
925 4.19854 54.1352 6.09765 0 0 0 0 0 0 
924 2.77826 54.1352 6.09765 0 0 0 0 0 0 
923 2.06812 55.3652 6.09765 0 0 0 0 0 0 
916 0.647839 55.3652 6.09765 0 0 0 0 0 0 
915 -0.062301 56.5952 6.09765 0 0 0 0 0 0 
903 2.06812 52.9052 6.09765 0 0 0 0 0 0 
898 0.647839 52.9052 6.09765 0 0 0 0 0 0 
897 -0.062301 54.1352 6.09765 0 0 0 0 0 0 
805 -0.062301 61.5152 6.09765 0 0 0 0 0 0 
966 4.19854 61.5152 6.09765 0 0 0 0 0 0 
965 2.77826 61.5152 6.09765 0 0 0 0 0 0 
862 4.19854 68.8952 6.09765 0 0 0 0 0 0 
861 2.77826 68.8952 6.09765 0 0 0 0 0 0 
848 4.19854 66.4352 6.09765 0 0 0 0 0 0 
847 2.77826 66.4352 6.09765 0 0 0 0 0 0 
846 2.06812 67.6652 6.09765 0 0 0 0 0 0 
845 0.647839 67.6652 6.09765 0 0 0 0 0 0 
844 -0.062301 68.8952 6.09765 0 0 0 0 0 0 
833 4.19854 63.9752 6.09765 0 0 0 0 0 0 
832 2.77826 63.9752 6.09765 0 0 0 0 0 0 
831 2.06812 65.2052 6.09765 0 0 0 0 0 0 
830 0.647839 65.2052 6.09765 0 0 0 0 0 0 
829 -0.062301 66.4352 6.09765 0 0 0 0 0 0 
818 2.06812 62.7452 6.09765 0 0 0 0 0 0 
817 0.647839 62.7452 6.09765 0 0 0 0 0 0 
816 -0.062301 63.9752 6.09765 0 0 0 0 0 0 
1828 4.19854 76.2752 6.09765 0 0 0 0 0 0 
1827 2.77826 76.2752 6.09765 0 0 0 0 0 0 
1826 2.06812 77.5052 6.09765 0 0 0 0 0 0 
1821 0.647839 77.5052 6.09765 0 0 0 0 0 0 
1813 4.19854 73.8152 6.09765 0 0 0 0 0 0 
1812 2.77826 73.8152 6.09765 0 0 0 0 0 0 
1811 2.06812 75.0452 6.09765 0 0 0 0 0 0 
1810 0.647839 75.0452 6.09765 0 0 0 0 0 0 
1809 -0.062301 76.2752 6.09765 0 0 0 0 0 0 
1717 4.19854 71.3552 6.09765 0 0 0 0 0 0 
1716 2.77826 71.3552 6.09765 0 0 0 0 0 0 
1715 2.06812 72.5852 6.09765 0 0 0 0 0 0 
1704 0.647839 72.5852 6.09765 0 0 0 0 0 0 
1703 -0.062301 73.8152 6.09765 0 0 0 0 0 0 
870 2.06812 70.1252 6.09765 0 0 0 0 0 0 
869 0.647839 70.1252 6.09765 0 0 0 0 0 0 
868 -0.062301 71.3552 6.09765 0 0 0 0 0 0 
1728 -0.062301 86.1152 6.09765 0 0 0 0 0 0 
1889 4.19854 86.1152 6.09765 0 0 0 0 0 0 
1888 2.77826 86.1152 6.09765 0 0 0 0 0 0 
1882 4.19854 83.6552 6.09765 0 0 0 0 0 0 
1881 2.77826 83.6552 6.09765 0 0 0 0 0 0 
1880 2.06812 84.8852 6.09765 0 0 0 0 0 0 
1875 0.647839 84.8852 6.09765 0 0 0 0 0 0 
1868 4.19854 81.1952 6.09765 0 0 0 0 0 0 
1867 2.77826 81.1952 6.09765 0 0 0 0 0 0 
1866 2.06812 82.4252 6.09765 0 0 0 0 0 0 
1857 0.647839 82.4252 6.09765 0 0 0 0 0 0 
1856 -0.062301 83.6552 6.09765 0 0 0 0 0 0 
1848 4.19854 78.7352 6.09765 0 0 0 0 0 0 
1847 2.77826 78.7352 6.09765 0 0 0 0 0 0 
1846 2.06812 79.9652 6.09765 0 0 0 0 0 0 
1839 0.647839 79.9652 6.09765 0 0 0 0 0 0 
1838 -0.062301 81.1952 6.09765 0 0 0 0 0 0 
1820 -0.062301 78.7352 6.09765 0 0 0 0 0 0 
1741 2.06812 87.3452 6.09765 0 0 0 0 0 0 
1740 0.647839 87.3452 6.09765 0 0 0 0 0 0 
2677 4.19854 95.9552 6.09765 0 0 0 0 0 0 
2676 2.77826 95.9552 6.09765 0 0 0 0 0 0 
1793 2.06812 94.7252 6.09765 0 0 0 0 0 0 
1792 0.647839 94.7252 6.09765 0 0 0 0 0 0 
1791 -0.062301 95.9552 6.09765 0 0 0 0 0 0 
1785 4.19854 93.4952 6.09765 0 0 0 0 0 0 
1784 2.77826 93.4952 6.09765 0 0 0 0 0 0 
1771 4.19854 91.0352 6.09765 0 0 0 0 0 0 
1770 2.77826 91.0352 6.09765 0 0 0 0 0 0 
1769 2.06812 92.2652 6.09765 0 0 0 0 0 0 
1768 0.647839 92.2652 6.09765 0 0 0 0 0 0 
1767 -0.062301 93.4952 6.09765 0 0 0 0 0 0 
1756 4.19854 88.5752 6.09765 0 0 0 0 0 0 
1755 2.77826 88.5752 6.09765 0 0 0 0 0 0 
1754 2.06812 89.8052 6.09765 0 0 0 0 0 0 
1753 0.647839 89.8052 6.09765 0 0 0 0 0 0 
1752 -0.062301 91.0352 6.09765 0 0 0 0 0 0 
1739 -0.062301 88.5752 6.09765 0 0 0 0 0 0 
2663 -0.062301 98.4152 6.09765 0 0 0 0 0 0 
2808 4.19854 103.335 6.09765 0 0 0 0 0 0 
2807 2.77826 103.335 6.09765 0 0 0 0 0 0 
2806 2.06812 104.565 6.09765 0 0 0 0 0 0 
2799 0.647839 104.565 6.09765 0 0 0 0 0 0 
2788 4.19854 100.875 6.09765 0 0 0 0 0 0 
2787 2.77826 100.875 6.09765 0 0 0 0 0 0 
2786 2.06812 102.105 6.09765 0 0 0 0 0 0 
2781 0.647839 102.105 6.09765 0 0 0 0 0 0 
2780 -0.062301 103.335 6.09765 0 0 0 0 0 0 
2773 4.19854 98.4152 6.09765 0 0 0 0 0 0 
2772 2.77826 98.4152 6.09765 0 0 0 0 0 0 
2771 2.06812 99.6452 6.09765 0 0 0 0 0 0 
2770 0.647839 99.6452 6.09765 0 0 0 0 0 0 
2769 -0.062301 100.875 6.09765 0 0 0 0 0 0 
2675 2.06812 97.1852 6.09765 0 0 0 0 0 0 
2664 0.647839 97.1852 6.09765 0 0 0 0 0 0 
2849 4.19854 110.715 6.09765 0 0 0 0 0 0 
2848 2.77826 110.715 6.09765 0 0 0 0 0 0 
2842 4.19854 108.255 6.09765 0 0 0 0 0 0 
2841 2.77826 108.255 6.09765 0 0 0 0 0 0 
2840 2.06812 109.485 6.09765 0 0 0 0 0 0 
2835 0.647839 109.485 6.09765 0 0 0 0 0 0 
2828 4.19854 105.795 6.09765 0 0 0 0 0 0 
2827 2.77826 105.795 6.09765 0 0 0 0 0 0 
2826 2.06812 107.025 6.09765 0 0 0 0 0 0 
2817 0.647839 107.025 6.09765 0 0 0 0 0 0 
2816 -0.062301 108.255 6.09765 0 0 0 0 0 0 
2798 -0.062301 105.795 6.09765 0 0 0 0 0 0 
2716 4.19854 113.175 6.09765 0 0 0 0 0 0 
2715 2.77826 113.175 6.09765 0 0 0 0 0 0 
2701 2.06812 111.945 6.09765 0 0 0 0 0 0 
2700 0.647839 111.945 6.09765 0 0 0 0 0 0 
2699 -0.062301 113.175 6.09765 0 0 0 0 0 0 
2688 -0.062301 110.715 6.09765 0 0 0 0 0 0 
2712 -0.062301 115.635 6.09765 0 0 0 0 0 0 
3636 4.19854 120.555 6.09765 0 0 0 0 0 0 
3635 2.77826 120.555 6.09765 0 0 0 0 0 0 
3634 2.06812 121.785 6.09765 0 0 0 0 0 0 
3623 0.647839 121.785 6.09765 0 0 0 0 0 0 
2753 2.06812 119.325 6.09765 0 0 0 0 0 0 
2752 0.647839 119.325 6.09765 0 0 0 0 0 0 
2751 -0.062301 120.555 6.09765 0 0 0 0 0 0 
2745 4.19854 118.095 6.09765 0 0 0 0 0 0 
2744 2.77826 118.095 6.09765 0 0 0 0 0 0 
2731 4.19854 115.635 6.09765 0 0 0 0 0 0 
2730 2.77826 115.635 6.09765 0 0 0 0 0 0 
2729 2.06812 116.865 6.09765 0 0 0 0 0 0 
2728 0.647839 116.865 6.09765 0 0 0 0 0 0 
2727 -0.062301 118.095 6.09765 0 0 0 0 0 0 
2714 2.06812 114.405 6.09765 0 0 0 0 0 0 
2713 0.647839 114.405 6.09765 0 0 0 0 0 0 
28 17.7759 6.70812 5.98282 0.32953 0.256183 0.0586912 -0.215156 0.0400161 -0.932684 
90 11.5151 0.483726 5.84332 -0.17498 -0.187099 -0.106054 -0.2368 0.822587 0.212755 
96 7.07514 2.61974 6.04824 -0.100014 0.133727 0.142993 0.796424 -1.06947 0.932235 
104 17.1839 0.736565 5.49584 0.0523394 -0.0229203 -0.0308454 -1.29877 -3.05467 2.156 
106 13.6184 1.72866 5.89049 -0.355785 0.130863 0.141821 -0.415715 -0.0687848 2.09493 
105 11.4243 2.8525 5.98456 -0.663656 0.000536134 -0.0882113 -0.404575 1.75485 -2.24635 
102 12.8426 2.91835 5.97123 0.44453 -0.310921 -0.0850041 -2.01272 1.02507 1.62243 
120 15.7138 3.02299 5.88356 -0.160401 0.254614 0.207363 1.19418 1.63101 0.224475 
88 10.7046 1.63188 5.93723 0.0388151 -0.274191 0.157521 -2.14108 -0.465752 0.719598 
103 15.0091 1.80213 5.83622 0.396339 -0.663621 -0.266685 -1.15676 1.69805 1.05884 
118 11.3747 5.26011 6.02403 -0.307791 0.0600461 0.0622746 -1.56169 3.59845 1.66638 
115 9.2363 3.95623 6.05927 0.130288 -0.26076 0.0337317 -0.00505558 0.922305 -0.829508 
9 14.9123 6.62181 6.04248 0.127099 -0.1314 -0.185237 0.639916 -0.433691 -0.118888 
101 10.6678 4.0347 6.03392 -0.235902 0.211703 -0.0424551 -0.691264 -2.11057 -0.0445161 
114 8.48633 5.14574 6.07775 0.216119 0.254223 -0.0973068 0.160041 2.10055 -0.955727 
10 17.0792 5.493 5.96397 -0.786113 -0.101744 0.12801 1.69116 1.21377 0.750366 
2 12.7872 5.33688 6.01327 0.35124 -0.247058 -0.0480833 -0.232319 -2.31826 -0.12476 
4 17.1381 3.07954 5.8662 -0.162251 0.312567 0.0879158 0.722597 -1.19354 -0.748716 
5 19.288 1.93253 5.97614 0.282091 -0.123771 0.0130123 1.77804 -0.668202 5.16518 
24 19.1946 6.77079 5.97397 -0.34227 -0.531961 0.000224379 0.625849 0.815131 2.47367 
121 17.9131 1.90901 5.77903 -0.387286 -0.445345 -0.0366976 -1.76531 -0.409879 0.371545 
119 13.5376 4.14306 5.9847 0.0443891 0.167662 0.0219811 -1.04597 -0.710757 -0.953048 
11 19.2423 4.35191 5.93095 -0.595798 0.023459 0.0879282 -0.136791 -0.568447 -0.561047 
14 15.6517 5.43143 5.99993 0.590631 -0.0616588 -0.00279927 0.214915 0.296472 -0.575606 
13 13.5019 6.55391 6.00171 -0.334918 0.227332 0.186281 -0.0901729 1.88593 -0.844662 
15 17.8168 4.30699 5.93782 0.731443 -0.17262 -0.141392 0.559655 1.62389 1.1199 
3 14.9555 4.20836 5.98161 0.141654 -0.16976 -0.144962 0.472875 0.0537285 0.131369 
107 15.8202 0.64775 5.66488 -0.134378 0.337456 0.101806 -0.243415 1.053 -1.35505 
98 9.30423 1.53277 6.00149 -0.097908 0.264006 0.0684687 -0.186675 -0.139926 -0.850756 
97 8.51906 2.72296 6.05558 0.397017 -0.15103 -0.105804 0.654429 0.532842 0.902878 
85 8.56088 0.331898 6.08117 0.00469741 0.180551 -0.0977976 -0.0353325 -0.791769 0.594782 
83 6.33892 1.37771 6.02499 0.422065 -0.31576 -0.0790023 0.274424 0.627682 0.460742 
84 7.19999 0.258416 5.86507 -0.197261 -0.0363703 0.0968759 -0.228375 -1.80562 -1.443 
94 4.90868 3.7052 6.09765 0 0 0 0 0 0 
111 4.90868 6.16519 6.09765 0 0 0 0 0 0 
82 4.90868 1.2452 6.09765 0 0 0 0 0 0 
95 6.33337 3.81615 6.09086 0.273667 0.0360155 -0.0724278 2.39848 1.67598 0.372447 
113 7.06611 5.05079 6.08056 -0.284342 -0.18793 0.0119471 -1.57635 -0.689303 0.487591 
112 6.32788 6.25289 6.08348 0.267148 0.111192 0.114885 -2.32891 -0.277822 -0.803647 
128 8.4731 7.57979 6.05812 -0.0401173 0.0122586 0.0711773 -0.958317 1.23585 -0.777209 
127 7.05153 7.49022 6.09952 -0.0726122 -0.0458818 -0.175213 1.23528 0.964234 -0.461797 
129 9.20386 6.3793 6.05266 0.247772 -0.280317 0.0240147 -1.18202 0.00267819 -1.04865 
1 10.6299 6.45447 6.04361 -0.147016 -0.042738 -0.0259713 -2.21369 0.135042 -0.537067 
89 12.8817 0.522748 5.9488 0.283781 0.295494 0.0331636 0.0645892 1.56599 0.341468 
51 6.31784 16.0676 6.09124 0.318709 -0.365271 -0.177236 0.511467 0.16686 1.22228 
292 6.32767 23.4186 6.07174 -0.251682 0.504773 0.118734 2.10186 0.138307 -1.4469 
330 11.2636 24.745 6.05123 -0.288677 -0.0634124 0.117435 0.603067 -0.250756 0.802351 
144 9.17108 13.6883 6.03806 -0.372864 -0.0683253 0.0612332 1.4598 -0.836824 0.242609 
318 7.01883 24.6693 6.08568 0.14355 -0.359085 0.0358003 0.114276 -1.2683 1.04569 
206 6.33004 20.9676 6.09341 -0.296501 0.160524 -0.0164561 -2.08223 -0.26792 0.548088 
293 7.03922 22.2017 6.08741 -0.663635 0.00915157 -0.00572062 1.6836 -1.05215 -0.211226 
140 8.45654 12.4597 6.09704 -0.0730614 -0.239244 -0.158385 0.76354 -0.579532 0.0250961 
35 10.5805 13.7449 6.02721 0.39739 0.288361 0.1318 -0.805065 -0.552613 -1.9409 
66 7.04451 17.2904 6.04813 -0.349505 -0.0557916 0.106755 -0.795177 -0.512014 -0.737121 
40 11.309 12.5423 6.06617 0.0845237 -0.110418 -0.146103 0.64519 2.24143 -1.09076 
57 11.3052 14.9675 6.02136 -0.362463 0.0379452 0.0167926 -2.53239 0.209361 -0.849479 
27 15.6252 7.83561 6.0481 -0.323253 0.253719 -0.0152304 0.63777 2.05662 -0.139305 
23 17.0368 7.89912 6.04302 0.0734589 -0.0523356 -0.0595286 0.27986 0.351098 1.65043 
39 19.1599 9.17181 6.02629 -0.278465 0.147925 0.0616079 2.02205 -0.673615 -1.73299 
43 17.7427 9.11684 6.05668 0.460073 -0.247512 -0.0966843 1.48902 0.805335 1.19983 
68 9.17194 16.1231 6.01021 0.101187 -0.181352 0.0728281 0.0171025 -0.539497 -0.348454 
207 7.04309 19.7525 6.07588 -0.428229 -0.373401 -0.0311922 1.92882 1.30888 0.213497 
281 10.5575 21.0705 6.07115 0.572429 0.10202 0.0771213 0.825237 0.117472 -0.0134373 
65 6.33722 18.513 6.07378 -0.45417 0.0959832 -0.00300613 -0.10285 -0.77164 1.50315 
294 8.43903 22.2484 6.10498 0.501398 -0.197297 -0.107402 0.226815 0.629788 -1.81345 
208 8.44781 19.7977 6.05738 0.257638 -0.246228 0.0443884 1.9547 -0.993901 -0.675024 
361 19.8006 24.9279 6.09301 -0.259421 0.396351 0.085879 -1.33679 1.61838 -2.13538 
67 8.45424 17.3289 6.03038 0.278101 0.964487 0.0816562 -1.62242 0.0120694 -1.02135 
295 9.14859 21.0272 6.05739 0.0530033 0.168577 0.141591 -0.557635 1.67637 2.92442 
319 8.43692 24.6994 6.10947 -0.0431026 0.278324 -0.0529214 2.59328 0.36279 -0.0804146 
320 9.14653 23.4774 6.11065 -0.159963 0.0240923 -0.0803933 0.126678 2.14452 -0.128196 
309 10.555 23.5087 6.07171 0.218002 0.630116 0.0637542 0.372486 -0.908603 0.767245 
342 19.8129 22.5019 6.07938 -0.26939 -0.158469 -0.173396 0.700976 -0.416742 2.13406 
328 12.6774 24.7741 6.0663 0.0542674 0.38016 -0.112997 -0.491851 -0.413094 0.328029 
301 14.8225 21.1626 6.03048 -0.0745149 0.189139 0.0503426 0.185587 0.219811 0.999324 
282 12.6974 19.8975 6.06183 -0.0782385 -0.263105 0.0617683 -0.0733994 -1.59469 0.406809 
311 11.2731 22.3044 6.08813 -0.170723 -0.737513 0.0290478 -0.414462 0.392922 0.689142 
304 15.5493 19.9557 6.00192 -0.529807 0.0270661 0.106925 0.592939 2.25064 -0.26813 
286 11.2854 19.8565 6.0872 -0.239923 0.0742126 -0.0864192 -0.62615 0.220738 -1.13653 
287 13.415 18.685 6.04027 0.175492 0.00513696 -0.0380354 2.00652 0.551361 0.400062 
310 12.6856 22.3271 6.11466 0.227548 0.327794 -0.240876 -0.16624 1.35272 0.336217 
351 15.522 24.8281 6.0568 -0.282811 0.114445 -0.0246964 -0.31418 0.0223059 -2.3341 
348 16.9281 24.876 6.05787 0.932281 -0.253904 0.0506785 -0.221507 -0.17438 -0.11211 
312 13.4065 21.1135 6.07718 0.206281 0.421273 -0.0146571 1.6624 -0.0220644 1.54393 
331 13.395 23.5591 6.06958 0.049234 0.00713377 0.0568797 0.640502 1.62805 0.229603 
329 14.8109 23.6074 6.05256 0.0213677 -0.350037 -0.0318957 0.787287 2.93845 -0.0817642 
283 14.832 18.7304 6.02437 0.0427074 0.215009 -0.129818 1.06503 -1.91132 -1.34802 
137 4.90868 13.5452 6.09765 0 0 0 0 0 0 
132 4.90868 11.0852 6.09765 0 0 0 0 0 0 
125 4.90868 8.62519 6.09765 0 0 0 0 0 0 
50 4.90868 16.0052 6.09765 0 0 0 0 0 0 
56 19.1369 11.5897 6.01138 -0.0308098 0.400768 0.106492 -0.577251 0.21904 0.339644 
138 6.32208 13.613 6.0869 -0.0614619 -0.343502 0.0358494 0.964052 1.29095 0.745716 
194 14.836 16.2917 6.03571 0.679152 0.295524 -0.090142 -2.14452 -1.0781 -2.42317 
38 17.019 10.3092 6.02406 -0.173202 0.476522 0.041563 0.639752 0.332111 2.50128 
52 10.5948 16.1807 6.02575 -0.620994 0.108353 -0.029088 1.38253 -0.164591 0.739495 
139 7.03649 12.3936 6.08644 0.244958 0.0038614 0.137714 -2.52419 2.03716 0.308633 
209 9.16266 18.5783 6.05833 -0.071968 -0.382573 -0.0424967 0.25624 1.08486 0.00426361 
142 7.02924 14.8441 6.07063 0.163456 0.196768 -0.0519345 0.748661 0.69585 1.08654 
143 8.44366 14.8993 6.03128 0.373902 -0.0380088 0.0573777 -0.951724 -0.433932 0.861492 
305 17.674 18.8024 5.98532 0.195487 0.0481436 0.0873052 1.62117 -0.379502 0.877846 
197 11.2924 17.4174 6.0343 0.368576 -0.44187 0.100642 -1.28081 -0.644794 2.01417 
193 12.7124 17.4562 6.03031 -0.286968 0.123802 -0.00931828 -0.759233 2.5939 0.367261 
324 19.816 20.0713 5.98697 -0.201508 -0.0505515 0.0559412 0.171498 2.55022 -0.510231 
341 19.0854 23.7105 6.08461 -0.0244797 -0.186593 0.0183191 1.57072 -0.845731 2.14199 
205 4.90868 20.9252 6.09765 0 0 0 0 0 0 
291 4.90868 23.3852 6.09765 0 0 0 0 0 0 
64 4.90868 18.4652 6.09765 0 0 0 0 0 0 
322 19.0991 21.2771 6.01481 -0.443703 0.289322 0.17185 1.26147 0.17383 0.650838 
352 17.6687 23.66 6.06905 -0.369229 0.273516 0.023007 0.667674 1.49736 1.74196 
302 16.9525 20.0201 6.01448 0.512965 -0.725917 0.00909447 0.196484 0.253492 1.06146 
192 10.5815 18.6264 6.08887 -0.378507 0.0711475 -0.182592 0.315258 -0.0426321 0.874385 
332 15.5349 22.3927 6.03112 -0.110876 -0.00198867 0.0811141 0.579894 0.177754 -1.71561 
323 17.6762 21.2295 6.05641 0.274359 0.0850886 -0.201695 -0.741938 -1.35763 -0.715997 
321 16.9527 22.434 6.06386 -0.012993 0.37471 -0.105239 0.245636 -0.0100493 1.55682 
25 11.324 10.1157 6.04604 0.140173 -0.156911 0.0965973 -0.351454 0.343045 -1.09322 
290 19.838 15.2368 6.09181 0.536585 0.382667 -0.21995 0.745283 -0.641767 1.73841 
306 19.8337 17.6602 6.00558 -0.578786 -0.416853 0.146246 -1.62451 -0.663367 0.526409 
136 9.19765 8.80828 6.05455 -0.308709 -0.175533 0.0971108 0.945481 0.557732 -0.449913 
284 16.9695 17.5675 6.02651 -0.1097 0.599708 -0.101791 -0.603317 -1.88247 0.461531 
288 15.5519 17.5227 5.9946 -0.0154144 -0.418033 0.236996 1.0365 0.890764 -0.925506 
12 11.3465 7.67742 6.03223 -0.231916 0.322172 0.00837471 0.780179 -1.18998 0.13441 
7 10.6135 8.8843 6.06482 0.0861665 -0.153111 -0.148511 -0.170535 -0.0792694 -1.23436 
36 12.731 12.5982 6.03499 -0.583565 -0.0563521 0.0814679 -0.219723 0.333506 0.262914 
198 13.43 16.2458 6.01564 -0.351067 0.0058091 0.0147923 -0.815013 0.429832 -0.492027 
60 17.7271 11.5313 6.01614 -0.324478 0.334833 0.047467 0.595662 2.12396 0.66052 
303 19.0957 18.8519 5.98134 -0.0244065 0.338374 -0.0263181 2.15509 -2.69823 0.771202 
8 12.7586 7.75099 6.00822 0.337128 -0.0333326 0.0544695 1.65185 0.154822 1.45865 
133 6.32674 11.1547 6.11208 -0.168647 -0.111391 -0.132831 -0.775519 -1.42694 -0.134776 
134 7.03399 9.93208 6.0997 0.665921 0.169062 0.0384511 1.51057 0.322341 -1.84568 
135 8.46435 10.0092 6.09679 -0.281557 0.193574 -0.0325617 0.0901148 1.39138 1.00232 
126 6.31785 8.69617 6.10798 0.510765 0.139847 -0.0638799 -0.0542564 0.898737 -1.29374 
20 10.591 11.32 6.0892 0.458288 -0.245298 -0.0985173 -0.618255 -0.31411 -0.37698 
141 9.18168 11.2454 6.09768 -0.468497 0.0159843 0.0313326 0.855368 1.66963 -0.180223 
59 15.5834 12.6783 6.02888 -0.0681776 0.19408 0.0412739 1.1811 -0.578589 0.776662 
55 16.992 12.7407 6.03002 0.634851 -0.364126 0.0634582 -0.233401 -0.767945 -1.34256 
200 17.7185 13.9538 6.0768 -0.0445082 0.221459 -0.041714 -0.645563 -0.372882 0.850866 
54 14.8552 13.8803 6.04388 -0.223722 -0.460039 0.00568099 -0.56437 0.677186 0.159422 
37 14.8757 11.4623 6.02324 -0.44241 -0.35525 -0.00947449 0.185338 0.538206 1.13828 
21 12.7481 10.1717 6.01999 -0.628932 0.121975 0.0367454 1.00545 -1.84349 -0.0664451 
199 15.5721 15.086 6.06648 0.0677197 0.821722 0.015706 -0.216351 0.662881 0.292947 
41 13.4501 11.3938 6.0163 0.741537 0.140194 0.0155656 0.59895 -0.727217 -0.479147 
58 13.4381 13.8181 6.03414 0.170999 0.392513 0.0124166 0.916279 -0.791532 -0.284002 
289 17.7023 16.3729 6.05982 0.0843598 0.131597 -0.00653326 1.1885 1.65358 -0.00739658 
53 12.7077 15.0274 6.01571 0.645101 -0.297349 0.0719989 0.69819 1.71258 -0.356887 
195 16.9906 15.1573 6.09672 -0.259029 -0.215333 -0.188275 0.618578 0.495402 -0.223107 
22 14.8831 9.03361 6.01662 0.614971 0.28592 0.16567 0.735581 -1.0397 0.313374 
26 13.4715 8.97291 6.01754 0.0189435 -0.147362 -0.037924 0.368294 0.0431219 -1.31846 
285 19.1178 16.4422 6.05074 -0.141259 -0.215245 0.0967399 -2.40934 -0.991927 -0.373369 
42 15.6076 10.2605 6.03793 -0.518663 -0.373509 -0.101824 0.195467 1.36262 -0.101232 
196 19.1352 14.0285 6.07321 -0.613684 -1.02795 -0.0577108 -0.0338028 -1.72677 -0.29978 
338 7.01958 27.1205 6.16099 -0.0637001 0.17394 -0.162291 0.954893 -1.04367 -0.607654 
237 17.6458 30.9765 6.08507 -0.276202 0.390587 0.139389 -1.16217 -0.962417 -1.39824 
232 16.9268 32.2034 6.1204 0.0907921 -0.499984 -0.194125 1.20734 1.56783 -0.799695 
363 11.2496 29.6498 6.09857 0.283285 0.457244 0.0378343 1.53082 0.505909 -0.75536 
210 10.5433 30.8782 6.10653 0.112946 -0.14518 -0.0462395 1.34416 0.19086 -2.04907 
317 6.31306 25.8922 6.1072 0.347105 -0.188061 0.101549 0.47362 -0.823297 0.132775 
360 9.14086 28.4035 6.17566 -0.210611 -0.937137 -0.0761178 0.619171 -0.731162 -0.184447 
349 11.2623 27.1988 6.11108 -0.367723 0.269587 -0.145375 0.556539 -0.61787 -0.750877 
340 9.13661 25.9423 6.09716 -0.151229 -0.11662 0.242229 0.924316 -0.170167 1.8334 
248 19.0662 33.4353 6.09342 -0.247631 0.374702 0.0528691 -0.193867 -1.17352 0.131994 
252 17.6441 33.421 6.09883 0.22133 -0.030518 -0.0418341 -0.195748 -0.252853 0.37902 
218 14.7929 30.9415 6.11414 0.2293 -0.0955065 0.03519 1.75907 0.911637 -0.761262 
253 19.7822 32.2244 6.08074 -0.236743 -0.13429 0.0217282 1.24195 1.83567 0.640735 
345 10.5471 28.4265 6.12002 0.252976 -0.452667 0.120833 0.196085 -0.509396 -1.33718 
219 16.9246 29.7587 6.10346 -0.173982 -0.399081 -0.0363975 0.73649 -1.32119 -0.65425 
212 14.8013 28.4844 6.10046 -0.274678 0.22092 0.0280769 -0.259381 0.803048 0.76504 
223 15.5039 29.7153 6.1244 0.29223 0.294849 -0.14097 -0.0989272 0.672271 0.665518 
327 10.5473 25.9696 6.07792 0.463428 -0.00315687 0.0282697 -1.04736 0.301201 1.09763 
222 13.3804 30.9039 6.11282 0.0383952 0.167128 -0.105073 -0.1276 -0.0696357 3.04435 
364 13.3788 28.4684 6.10864 0.355076 -0.322019 -0.107391 0.488398 0.867772 -1.00212 
381 9.14218 33.2886 6.06986 0.121409 0.0229429 0.139262 1.2006 -0.302742 2.21163 
233 19.0614 31.0024 6.06869 -0.128131 0.409836 0.09828 -0.108388 -0.432233 1.19364 
211 12.6656 29.6848 6.0926 -0.00519842 -0.124427 0.121189 -0.691333 -0.660816 -1.66522 
346 12.6753 27.2384 6.08933 -0.0437667 -0.162496 -0.0349562 -2.00388 -0.822557 -1.2617 
339 8.42724 27.1663 6.17882 0.454285 -0.155769 -0.228904 -1.61253 0.633639 0.255578 
790 17.657 38.2984 6.14168 -0.453321 -0.225199 -0.00285948 0.111755 0.0670731 0.254844 
784 14.8141 40.7243 6.1445 -0.347262 0.575807 -0.146116 1.94708 -0.167775 0.305911 
270 19.7845 34.6592 6.1207 -0.211513 0.194907 -0.116532 -1.25052 0.124104 0.0238895 
880 19.78 39.5433 6.1382 0.0291483 -0.049383 -0.109551 -0.66656 0.814969 0.654391 
383 6.32674 38.1653 6.08276 -0.336859 0.219946 -0.0477998 0.814286 1.49358 0.175736 
874 16.9514 41.96 6.14371 -0.159272 0.0765599 -0.125473 1.49841 -1.43498 -1.11135 
789 15.5221 39.5174 6.15518 0.174136 -0.962634 -0.0649123 -2.30765 0.285259 1.10381 
263 14.8159 38.2802 6.12389 -0.109732 0.203176 0.127351 0.629916 0.337606 1.25707 
265 19.0621 35.8796 6.10881 0.119417 -0.137736 0.131596 0.136457 -0.161746 0.296095 
264 16.9278 37.0683 6.12964 0.437066 0.523703 0.000481161 0.336695 1.75002 1.88608 
268 15.5151 37.053 6.12118 0.124587 0.116648 -0.00603504 0.118449 -0.525876 0.219706 
791 19.7847 37.0996 6.13444 -0.354067 -0.116551 -0.160775 -1.04576 -1.04249 -0.0474502 
786 19.0758 38.3167 6.11632 -0.347175 0.126657 0.15854 0.703866 3.12875 -0.573729 
359 8.43626 29.6097 6.15483 -0.429743 0.335118 -0.0816583 0.534239 -1.23798 -0.329319 
216 10.5612 33.3293 6.08102 -0.148137 0.0999176 0.119883 0.713359 0.775253 0.536639 
378 6.31501 35.7086 6.09131 0.287398 0.0632778 -0.0489848 -1.98656 0.548136 1.15463 
358 7.02291 29.5787 6.12834 0.172606 -0.250633 -0.0441645 -1.80452 0.632685 -0.756345 
379 7.02026 34.4837 6.0911 0.113381 0.203457 -0.00691089 0.79284 0.806073 0.290187 
787 11.2765 41.8964 6.13166 -0.317226 -0.0132976 -0.111562 -0.907009 0.996644 0.914956 
380 8.43237 34.5075 6.11115 0.103211 0.0786406 -0.148771 -1.3951 1.09333 -1.62814 
373 8.43781 32.0573 6.09534 -0.254739 0.337 -0.0515567 -0.739276 -0.171217 1.16021 
231 14.7987 33.3878 6.09042 -0.155794 -0.0804344 -0.0509672 -0.517113 0.449754 0.747964 
224 17.638 28.5352 6.09356 -0.201215 0.156024 -0.128891 1.04173 0.7923 0.039865 
249 11.2705 37.005 6.16837 0.0377694 0.0687886 -0.241881 -0.743224 -1.3788 -0.242326 
374 9.12579 30.8382 6.11778 0.773475 0.0843189 0.00702894 1.72085 0.117637 -1.4733 
250 13.3942 35.8256 6.13308 -0.229845 -0.699601 0.0515474 -1.29951 1.24825 -0.409009 
261 10.5591 40.6672 6.08776 0.145014 0.487516 0.0689819 0.457979 -0.487646 -0.678708 
221 11.2653 32.1065 6.10221 -0.506974 -0.333921 -0.0128628 -1.66391 -0.154598 -1.66306 
225 19.7726 27.3601 6.10498 0.434968 0.152351 -0.179184 0.726596 0.4902 -0.541355 
214 19.0622 26.1404 6.08136 0.380094 -0.34604 0.0586568 -1.68345 2.59829 -0.345001 
366 17.6484 26.1008 6.07145 -0.134802 -0.275378 -0.0204045 -1.77283 -1.75659 -1.82964 
213 16.9275 27.3081 6.07628 0.164291 0.298025 -0.0310314 -0.0988281 2.54558 -0.998546 
230 12.6733 34.5948 6.12762 0.421298 -0.102267 0.00804451 0.31106 -0.50844 1.89715 
245 12.6882 37.0416 6.16097 -0.35966 -0.140088 -0.0967882 0.49601 -1.7777 -0.862203 
347 14.8019 26.04 6.05952 -0.108554 0.298512 -0.0728178 -0.987163 -0.660773 0.13482 
266 11.2689 39.4512 6.10861 -0.292346 -0.405429 0.0347973 -1.20085 -0.5996 0.983048 
251 15.5163 34.6015 6.06109 -0.37324 0.705455 0.27371 -1.53128 -2.0413 0.475489 
246 14.8033 35.8308 6.12189 0.315892 -0.212319 -0.193368 -0.118576 0.451292 2.29421 
247 16.9244 34.6359 6.08141 0.498115 -0.0678915 0.0512623 1.35677 -0.368143 -0.0720775 
782 10.5597 43.1177 6.13279 -0.00666965 0.326584 0.0128669 -0.784227 0.239369 -1.13086 
799 9.139 43.106 6.11359 0.289441 -0.126651 -0.121884 0.604608 0.948688 0.485047 
269 17.6447 35.8553 6.11329 -0.000514894 -0.117563 -0.0362738 0.152173 -1.55886 0.686978 
788 13.3939 40.6984 6.10807 0.486303 0.303384 0.129959 -0.771987 -1.56889 1.3289 
875 19.0716 40.7599 6.11735 0.0566395 0.243986 0.0580695 0.967049 0.314458 0.0120235 
879 17.659 40.739 6.14906 -0.099543 0.0265641 -0.0870082 -1.26195 1.95761 0.115174 
896 19.7879 41.9873 6.10148 0.231346 -0.350315 0.0982271 0.50461 -0.853387 -0.0443896 
783 12.6896 41.9199 6.11441 0.276886 0.50932 0.114972 -1.34873 -0.782251 -0.882628 
267 13.3972 38.258 6.13859 0.0412295 0.620254 -0.00157535 1.36196 -0.119259 0.530643 
244 10.5509 38.2174 6.10978 0.337597 0.391951 0.064681 -1.30688 -1.34272 -0.0630994 
785 16.9373 39.5201 6.14848 0.237417 -0.0407815 -0.00990729 -0.706786 0.151494 -1.17337 
262 12.68 39.4861 6.12535 0.229343 -0.719891 -0.0991813 2.03375 0.0424997 0.621532 
878 15.5323 41.9525 6.10649 -0.0894987 -0.24127 0.136996 2.51168 0.0702155 0.963571 
365 15.5181 27.2676 6.0578 -0.339344 0.0496368 0.125604 -0.918033 0.969821 0.174806 
220 19.0495 28.5715 6.05664 0.395191 0.00756304 0.219679 0.135607 -0.445821 0.257421 
337 6.32192 28.3439 6.10779 -0.176576 0.0806862 0.141146 1.01446 0.558833 -0.756012 
350 13.3798 26.0153 6.04224 0.339379 -0.284059 0.212285 -0.0746148 -1.49622 0.404199 
238 19.7711 29.7909 6.07343 0.214843 -0.123096 -0.12671 2.18401 1.25289 -1.9947 
370 4.90868 33.2252 6.09765 0 0 0 0 0 0 
356 4.90868 30.7652 6.09765 0 0 0 0 0 0 