ITEM: TIMESTEP
6300
ITEM: NUMBER OF ATOMS
4798
ITEM: BOX BOUNDS ff ff ff
-10.3577 110.358
-10.0998 131.9
-100.402 112.598
ITEM: ATOMS id x y z fx fy fz vx vy vz 
72 -0.062301 2.4752 6.09765 0 0 0 0 0 0 
110 4.19854 7.39519 6.09765 0 0 0 0 0 0 
109 2.77826 7.39519 6.09765 0 0 0 0 0 0 
93 4.19854 4.9352 6.09765 0 0 0 0 0 0 
92 2.77826 4.9352 6.09765 0 0 0 0 0 0 
91 2.06812 6.16519 6.09765 0 0 0 0 0 0 
87 0.647839 6.16519 6.09765 0 0 0 0 0 0 
86 -0.062301 7.39519 6.09765 0 0 0 0 0 0 
81 4.19854 2.4752 6.09765 0 0 0 0 0 0 
80 2.77826 2.4752 6.09765 0 0 0 0 0 0 
79 2.06812 3.7052 6.09765 0 0 0 0 0 0 
78 0.647839 3.7052 6.09765 0 0 0 0 0 0 
77 -0.062301 4.9352 6.09765 0 0 0 0 0 0 
76 4.19854 0.015197 6.09765 0 0 0 0 0 0 
75 2.77826 0.015197 6.09765 0 0 0 0 0 0 
74 2.06812 1.2452 6.09765 0 0 0 0 0 0 
73 0.647839 1.2452 6.09765 0 0 0 0 0 0 
6 -0.062301 12.3152 6.09765 0 0 0 0 0 0 
131 4.19854 12.3152 6.09765 0 0 0 0 0 0 
130 2.77826 12.3152 6.09765 0 0 0 0 0 0 
124 4.19854 9.85519 6.09765 0 0 0 0 0 0 
123 2.77826 9.85519 6.09765 0 0 0 0 0 0 
122 2.06812 11.0852 6.09765 0 0 0 0 0 0 
117 0.647839 11.0852 6.09765 0 0 0 0 0 0 
108 2.06812 8.62519 6.09765 0 0 0 0 0 0 
100 0.647839 8.62519 6.09765 0 0 0 0 0 0 
99 -0.062301 9.85519 6.09765 0 0 0 0 0 0 
34 4.19854 14.7752 6.09765 0 0 0 0 0 0 
33 2.77826 14.7752 6.09765 0 0 0 0 0 0 
32 2.06812 16.0052 6.09765 0 0 0 0 0 0 
31 0.647839 16.0052 6.09765 0 0 0 0 0 0 
19 2.06812 13.5452 6.09765 0 0 0 0 0 0 
18 0.647839 13.5452 6.09765 0 0 0 0 0 0 
17 -0.062301 14.7752 6.09765 0 0 0 0 0 0 
300 4.19854 24.6152 6.09765 0 0 0 0 0 0 
299 2.77826 24.6152 6.09765 0 0 0 0 0 0 
204 4.19854 22.1552 6.09765 0 0 0 0 0 0 
203 2.77826 22.1552 6.09765 0 0 0 0 0 0 
202 2.06812 23.3852 6.09765 0 0 0 0 0 0 
191 0.647839 23.3852 6.09765 0 0 0 0 0 0 
190 -0.062301 24.6152 6.09765 0 0 0 0 0 0 
71 2.06812 20.9252 6.09765 0 0 0 0 0 0 
70 0.647839 20.9252 6.09765 0 0 0 0 0 0 
69 -0.062301 22.1552 6.09765 0 0 0 0 0 0 
63 4.19854 19.6952 6.09765 0 0 0 0 0 0 
62 2.77826 19.6952 6.09765 0 0 0 0 0 0 
49 4.19854 17.2352 6.09765 0 0 0 0 0 0 
48 2.77826 17.2352 6.09765 0 0 0 0 0 0 
47 2.06812 18.4652 6.09765 0 0 0 0 0 0 
46 0.647839 18.4652 6.09765 0 0 0 0 0 0 
45 -0.062301 19.6952 6.09765 0 0 0 0 0 0 
30 -0.062301 17.2352 6.09765 0 0 0 0 0 0 
355 4.19854 31.9952 6.09765 0 0 0 0 0 0 
354 2.77826 31.9952 6.09765 0 0 0 0 0 0 
353 2.06812 33.2252 6.09765 0 0 0 0 0 0 
344 0.647839 33.2252 6.09765 0 0 0 0 0 0 
335 4.19854 29.5352 6.09765 0 0 0 0 0 0 
334 2.77826 29.5352 6.09765 0 0 0 0 0 0 
333 2.06812 30.7652 6.09765 0 0 0 0 0 0 
326 0.647839 30.7652 6.09765 0 0 0 0 0 0 
325 -0.062301 31.9952 6.09765 0 0 0 0 0 0 
315 4.19854 27.0752 6.09765 0 0 0 0 0 0 
314 2.77826 27.0752 6.09765 0 0 0 0 0 0 
313 2.06812 28.3052 6.09765 0 0 0 0 0 0 
308 0.647839 28.3052 6.09765 0 0 0 0 0 0 
307 -0.062301 29.5352 6.09765 0 0 0 0 0 0 
298 2.06812 25.8452 6.09765 0 0 0 0 0 0 
297 0.647839 25.8452 6.09765 0 0 0 0 0 0 
296 -0.062301 27.0752 6.09765 0 0 0 0 0 0 
215 -0.062301 36.9152 6.09765 0 0 0 0 0 0 
376 4.19854 36.9152 6.09765 0 0 0 0 0 0 
375 2.77826 36.9152 6.09765 0 0 0 0 0 0 
369 4.19854 34.4552 6.09765 0 0 0 0 0 0 
368 2.77826 34.4552 6.09765 0 0 0 0 0 0 
367 2.06812 35.6852 6.09765 0 0 0 0 0 0 
362 0.647839 35.6852 6.09765 0 0 0 0 0 0 
343 -0.062301 34.4552 6.09765 0 0 0 0 0 0 
258 4.19854 41.8352 6.09765 0 0 0 0 0 0 
257 2.77826 41.8352 6.09765 0 0 0 0 0 0 
256 2.06812 43.0652 6.09765 0 0 0 0 0 0 
255 0.647839 43.0652 6.09765 0 0 0 0 0 0 
243 4.19854 39.3752 6.09765 0 0 0 0 0 0 
242 2.77826 39.3752 6.09765 0 0 0 0 0 0 
241 2.06812 40.6052 6.09765 0 0 0 0 0 0 
240 0.647839 40.6052 6.09765 0 0 0 0 0 0 
239 -0.062301 41.8352 6.09765 0 0 0 0 0 0 
228 2.06812 38.1452 6.09765 0 0 0 0 0 0 
227 0.647839 38.1452 6.09765 0 0 0 0 0 0 
226 -0.062301 39.3752 6.09765 0 0 0 0 0 0 
254 -0.062301 44.2952 6.09765 0 0 0 0 0 0 
905 4.19854 51.6752 6.09765 0 0 0 0 0 0 
904 2.77826 51.6752 6.09765 0 0 0 0 0 0 
890 4.19854 49.2152 6.09765 0 0 0 0 0 0 
889 2.77826 49.2152 6.09765 0 0 0 0 0 0 
888 2.06812 50.4452 6.09765 0 0 0 0 0 0 
887 0.647839 50.4452 6.09765 0 0 0 0 0 0 
886 -0.062301 51.6752 6.09765 0 0 0 0 0 0 
794 4.19854 46.7552 6.09765 0 0 0 0 0 0 
793 2.77826 46.7552 6.09765 0 0 0 0 0 0 
792 2.06812 47.9852 6.09765 0 0 0 0 0 0 
781 0.647839 47.9852 6.09765 0 0 0 0 0 0 
780 -0.062301 49.2152 6.09765 0 0 0 0 0 0 
280 2.06812 45.5252 6.09765 0 0 0 0 0 0 
279 0.647839 45.5252 6.09765 0 0 0 0 0 0 
278 -0.062301 46.7552 6.09765 0 0 0 0 0 0 
272 4.19854 44.2952 6.09765 0 0 0 0 0 0 
271 2.77826 44.2952 6.09765 0 0 0 0 0 0 
959 4.19854 59.0552 6.09765 0 0 0 0 0 0 
958 2.77826 59.0552 6.09765 0 0 0 0 0 0 
957 2.06812 60.2852 6.09765 0 0 0 0 0 0 
952 0.647839 60.2852 6.09765 0 0 0 0 0 0 
945 4.19854 56.5952 6.09765 0 0 0 0 0 0 
944 2.77826 56.5952 6.09765 0 0 0 0 0 0 
943 2.06812 57.8252 6.09765 0 0 0 0 0 0 
934 0.647839 57.8252 6.09765 0 0 0 0 0 0 
933 -0.062301 59.0552 6.09765 0 0 0 0 0 0 
925 4.19854 54.1352 6.09765 0 0 0 0 0 0 
924 2.77826 54.1352 6.09765 0 0 0 0 0 0 
923 2.06812 55.3652 6.09765 0 0 0 0 0 0 
916 0.647839 55.3652 6.09765 0 0 0 0 0 0 
915 -0.062301 56.5952 6.09765 0 0 0 0 0 0 
903 2.06812 52.9052 6.09765 0 0 0 0 0 0 
898 0.647839 52.9052 6.09765 0 0 0 0 0 0 
897 -0.062301 54.1352 6.09765 0 0 0 0 0 0 
805 -0.062301 61.5152 6.09765 0 0 0 0 0 0 
966 4.19854 61.5152 6.09765 0 0 0 0 0 0 
965 2.77826 61.5152 6.09765 0 0 0 0 0 0 
862 4.19854 68.8952 6.09765 0 0 0 0 0 0 
861 2.77826 68.8952 6.09765 0 0 0 0 0 0 
848 4.19854 66.4352 6.09765 0 0 0 0 0 0 
847 2.77826 66.4352 6.09765 0 0 0 0 0 0 
846 2.06812 67.6652 6.09765 0 0 0 0 0 0 
845 0.647839 67.6652 6.09765 0 0 0 0 0 0 
844 -0.062301 68.8952 6.09765 0 0 0 0 0 0 
833 4.19854 63.9752 6.09765 0 0 0 0 0 0 
832 2.77826 63.9752 6.09765 0 0 0 0 0 0 
831 2.06812 65.2052 6.09765 0 0 0 0 0 0 
830 0.647839 65.2052 6.09765 0 0 0 0 0 0 
829 -0.062301 66.4352 6.09765 0 0 0 0 0 0 
818 2.06812 62.7452 6.09765 0 0 0 0 0 0 
817 0.647839 62.7452 6.09765 0 0 0 0 0 0 
816 -0.062301 63.9752 6.09765 0 0 0 0 0 0 
1828 4.19854 76.2752 6.09765 0 0 0 0 0 0 
1827 2.77826 76.2752 6.09765 0 0 0 0 0 0 
1826 2.06812 77.5052 6.09765 0 0 0 0 0 0 
1821 0.647839 77.5052 6.09765 0 0 0 0 0 0 
1813 4.19854 73.8152 6.09765 0 0 0 0 0 0 
1812 2.77826 73.8152 6.09765 0 0 0 0 0 0 
1811 2.06812 75.0452 6.09765 0 0 0 0 0 0 
1810 0.647839 75.0452 6.09765 0 0 0 0 0 0 
1809 -0.062301 76.2752 6.09765 0 0 0 0 0 0 
1717 4.19854 71.3552 6.09765 0 0 0 0 0 0 
1716 2.77826 71.3552 6.09765 0 0 0 0 0 0 
1715 2.06812 72.5852 6.09765 0 0 0 0 0 0 
1704 0.647839 72.5852 6.09765 0 0 0 0 0 0 
1703 -0.062301 73.8152 6.09765 0 0 0 0 0 0 
870 2.06812 70.1252 6.09765 0 0 0 0 0 0 
869 0.647839 70.1252 6.09765 0 0 0 0 0 0 
868 -0.062301 71.3552 6.09765 0 0 0 0 0 0 
1728 -0.062301 86.1152 6.09765 0 0 0 0 0 0 
1889 4.19854 86.1152 6.09765 0 0 0 0 0 0 
1888 2.77826 86.1152 6.09765 0 0 0 0 0 0 
1882 4.19854 83.6552 6.09765 0 0 0 0 0 0 
1881 2.77826 83.6552 6.09765 0 0 0 0 0 0 
1880 2.06812 84.8852 6.09765 0 0 0 0 0 0 
1875 0.647839 84.8852 6.09765 0 0 0 0 0 0 
1868 4.19854 81.1952 6.09765 0 0 0 0 0 0 
1867 2.77826 81.1952 6.09765 0 0 0 0 0 0 
1866 2.06812 82.4252 6.09765 0 0 0 0 0 0 
1857 0.647839 82.4252 6.09765 0 0 0 0 0 0 
1856 -0.062301 83.6552 6.09765 0 0 0 0 0 0 
1848 4.19854 78.7352 6.09765 0 0 0 0 0 0 
1847 2.77826 78.7352 6.09765 0 0 0 0 0 0 
1846 2.06812 79.9652 6.09765 0 0 0 0 0 0 
1839 0.647839 79.9652 6.09765 0 0 0 0 0 0 
1838 -0.062301 81.1952 6.09765 0 0 0 0 0 0 
1820 -0.062301 78.7352 6.09765 0 0 0 0 0 0 
1741 2.06812 87.3452 6.09765 0 0 0 0 0 0 
1740 0.647839 87.3452 6.09765 0 0 0 0 0 0 
2677 4.19854 95.9552 6.09765 0 0 0 0 0 0 
2676 2.77826 95.9552 6.09765 0 0 0 0 0 0 
1793 2.06812 94.7252 6.09765 0 0 0 0 0 0 
1792 0.647839 94.7252 6.09765 0 0 0 0 0 0 
1791 -0.062301 95.9552 6.09765 0 0 0 0 0 0 
1785 4.19854 93.4952 6.09765 0 0 0 0 0 0 
1784 2.77826 93.4952 6.09765 0 0 0 0 0 0 
1771 4.19854 91.0352 6.09765 0 0 0 0 0 0 
1770 2.77826 91.0352 6.09765 0 0 0 0 0 0 
1769 2.06812 92.2652 6.09765 0 0 0 0 0 0 
1768 0.647839 92.2652 6.09765 0 0 0 0 0 0 
1767 -0.062301 93.4952 6.09765 0 0 0 0 0 0 
1756 4.19854 88.5752 6.09765 0 0 0 0 0 0 
1755 2.77826 88.5752 6.09765 0 0 0 0 0 0 
1754 2.06812 89.8052 6.09765 0 0 0 0 0 0 
1753 0.647839 89.8052 6.09765 0 0 0 0 0 0 
1752 -0.062301 91.0352 6.09765 0 0 0 0 0 0 
1739 -0.062301 88.5752 6.09765 0 0 0 0 0 0 
2663 -0.062301 98.4152 6.09765 0 0 0 0 0 0 
2808 4.19854 103.335 6.09765 0 0 0 0 0 0 
2807 2.77826 103.335 6.09765 0 0 0 0 0 0 
2806 2.06812 104.565 6.09765 0 0 0 0 0 0 
2799 0.647839 104.565 6.09765 0 0 0 0 0 0 
2788 4.19854 100.875 6.09765 0 0 0 0 0 0 
2787 2.77826 100.875 6.09765 0 0 0 0 0 0 
2786 2.06812 102.105 6.09765 0 0 0 0 0 0 
2781 0.647839 102.105 6.09765 0 0 0 0 0 0 
2780 -0.062301 103.335 6.09765 0 0 0 0 0 0 
2773 4.19854 98.4152 6.09765 0 0 0 0 0 0 
2772 2.77826 98.4152 6.09765 0 0 0 0 0 0 
2771 2.06812 99.6452 6.09765 0 0 0 0 0 0 
2770 0.647839 99.6452 6.09765 0 0 0 0 0 0 
2769 -0.062301 100.875 6.09765 0 0 0 0 0 0 
2675 2.06812 97.1852 6.09765 0 0 0 0 0 0 
2664 0.647839 97.1852 6.09765 0 0 0 0 0 0 
2849 4.19854 110.715 6.09765 0 0 0 0 0 0 
2848 2.77826 110.715 6.09765 0 0 0 0 0 0 
2842 4.19854 108.255 6.09765 0 0 0 0 0 0 
2841 2.77826 108.255 6.09765 0 0 0 0 0 0 
2840 2.06812 109.485 6.09765 0 0 0 0 0 0 
2835 0.647839 109.485 6.09765 0 0 0 0 0 0 
2828 4.19854 105.795 6.09765 0 0 0 0 0 0 
2827 2.77826 105.795 6.09765 0 0 0 0 0 0 
2826 2.06812 107.025 6.09765 0 0 0 0 0 0 
2817 0.647839 107.025 6.09765 0 0 0 0 0 0 
2816 -0.062301 108.255 6.09765 0 0 0 0 0 0 
2798 -0.062301 105.795 6.09765 0 0 0 0 0 0 
2716 4.19854 113.175 6.09765 0 0 0 0 0 0 
2715 2.77826 113.175 6.09765 0 0 0 0 0 0 
2701 2.06812 111.945 6.09765 0 0 0 0 0 0 
2700 0.647839 111.945 6.09765 0 0 0 0 0 0 
2699 -0.062301 113.175 6.09765 0 0 0 0 0 0 
2688 -0.062301 110.715 6.09765 0 0 0 0 0 0 
2712 -0.062301 115.635 6.09765 0 0 0 0 0 0 
3636 4.19854 120.555 6.09765 0 0 0 0 0 0 
3635 2.77826 120.555 6.09765 0 0 0 0 0 0 
3634 2.06812 121.785 6.09765 0 0 0 0 0 0 
3623 0.647839 121.785 6.09765 0 0 0 0 0 0 
2753 2.06812 119.325 6.09765 0 0 0 0 0 0 
2752 0.647839 119.325 6.09765 0 0 0 0 0 0 
2751 -0.062301 120.555 6.09765 0 0 0 0 0 0 
2745 4.19854 118.095 6.09765 0 0 0 0 0 0 
2744 2.77826 118.095 6.09765 0 0 0 0 0 0 
2731 4.19854 115.635 6.09765 0 0 0 0 0 0 
2730 2.77826 115.635 6.09765 0 0 0 0 0 0 
2729 2.06812 116.865 6.09765 0 0 0 0 0 0 
2728 0.647839 116.865 6.09765 0 0 0 0 0 0 
2727 -0.062301 118.095 6.09765 0 0 0 0 0 0 
2714 2.06812 114.405 6.09765 0 0 0 0 0 0 
2713 0.647839 114.405 6.09765 0 0 0 0 0 0 
28 17.759 6.70626 6.04812 0.400177 -0.0972185 -0.140119 -2.37378 1.60571 0.259543 
90 11.5222 0.447098 6.01444 0.243493 0.386149 0.0963776 -1.65431 0.03081 0.475208 
96 7.08461 2.60666 6.09245 0.15708 -0.130546 0.0632798 0.620273 2.07995 0.162853 
104 17.1673 0.67894 6.00611 -0.0335665 -0.0693769 0.019157 -0.0239322 -0.815979 0.214986 
106 13.6138 1.70709 6.10258 0.0846663 0.820223 -0.140322 -0.395395 0.819912 0.719781 
105 11.4093 2.83674 6.07874 0.219308 0.522028 -0.0431106 -0.189008 -0.32792 0.487236 
102 12.8375 2.90706 6.07618 0.447752 -0.242356 0.0940236 -0.525548 0.0930156 -0.415299 
120 15.7054 2.99929 6.01321 -0.0541067 0.944693 0.296573 -0.00362436 -0.060239 1.08534 
88 10.7087 1.61037 6.06652 0.0692043 -0.58974 -0.00139503 -3.80418 2.03491 -0.143318 
103 15.0032 1.77809 5.9887 0.256541 -0.273693 -0.254781 -1.98701 -0.345836 3.6374 
118 11.3769 5.26404 6.09191 -0.166942 -0.254669 -0.0798811 2.02014 -1.01716 -0.0489392 
115 9.23461 3.93988 6.11568 0.352666 0.465671 -0.163989 0.243648 -0.140734 0.792381 
9 14.9048 6.6154 5.99564 -0.0933083 0.207628 0.185952 0.021534 1.56638 0.54975 
101 10.666 4.0395 6.09909 -0.298253 -0.584267 -0.00299813 0.742974 -2.20296 2.67234 
114 8.49143 5.1448 6.10834 0.0567396 -0.321542 -0.00326523 -1.01148 0.259477 -0.3713 
10 17.0646 5.48695 6.05973 0.0136131 -0.186401 -0.0689733 1.3384 0.611519 -0.581043 
2 12.7933 5.33067 6.04756 -0.220617 0.128582 0.0357142 0.772769 -2.49123 -0.940072 
4 17.1337 3.07256 6.0734 -0.371812 -0.0154068 -0.0975206 0.275447 0.750709 -0.181599 
85 8.57332 0.30794 6.08431 -0.234007 0.192745 0.0188947 -0.736269 0.27075 0.76092 
24 19.178 6.74655 6.03675 0.00965395 0.448729 0.255211 0.902258 -0.649095 -2.29497 
121 17.8848 1.87925 6.09402 0.19989 0.210316 -0.00367884 -0.575403 0.863325 -0.620144 
119 13.5366 4.14064 6.05273 0.0605563 -0.371207 0.0592479 0.441167 0.644628 -2.37846 
11 19.2304 4.33656 6.11061 0.258402 0.161123 -0.0793582 2.00186 -0.569266 2.99294 
14 15.6496 5.42357 6.0484 0.055334 -0.0418406 -0.0538032 1.30013 -0.272295 0.84901 
13 13.4858 6.56282 6.01463 0.444563 -0.572302 0.0749756 0.599687 1.33584 -0.292753 
15 17.8228 4.30578 6.05337 -0.385231 -0.458145 0.202074 1.03403 0.881455 -1.27311 
3 14.9539 4.19494 6.05357 0.122036 -0.0226807 -0.0805107 -0.220369 -0.223274 1.38235 
107 15.8222 0.655102 5.75424 -0.513867 -0.23716 0.0627167 3.10235 -2.00171 0.801302 
98 9.31245 1.51201 6.10144 -0.23875 0.383253 -0.154609 -1.07729 -1.15015 -0.63805 
97 8.5301 2.70516 6.08473 -0.00435016 -0.224384 0.104968 1.08542 -0.134486 1.7218 
95 6.34939 3.79891 6.10429 -0.565482 0.578533 -0.0665474 0.984163 0.207243 0.811614 
113 7.06891 5.04123 6.09839 -0.171124 0.338653 -0.00871081 0.695754 -1.4727 -0.71311 
1 10.6293 6.45206 6.08944 -0.05077 0.372692 -0.0880968 -1.34616 -0.858267 -0.107551 
129 9.20725 6.38053 6.09117 0.177011 -0.53724 0.117037 -1.06642 0.240785 0.106965 
127 7.0481 7.49301 6.09392 0.283579 -0.0434943 0.0314236 -0.568776 -1.47248 0.785407 
128 8.47451 7.5771 6.10039 -0.305465 0.337788 -0.015817 -1.7511 0.400451 0.421338 
112 6.33165 6.25627 6.08811 0.0367836 -0.44207 0.0740971 -0.0235774 2.07525 -1.14808 
94 4.90868 3.7052 6.09765 0 0 0 0 0 0 
111 4.90868 6.16519 6.09765 0 0 0 0 0 0 
82 4.90868 1.2452 6.09765 0 0 0 0 0 0 
89 12.8881 0.513959 6.22131 -0.579822 -0.213446 0.0456384 1.18645 -0.372135 1.96463 
5 19.2623 1.9226 6.22633 0.589 -0.0385707 -0.0588425 -1.09533 -0.376508 2.46158 
84 7.19344 0.230833 6.14345 -0.00785104 0.0830148 0.0312026 -0.321361 -0.271751 -1.79108 
83 6.3435 1.37021 6.12561 0.311991 -0.419986 -0.140021 0.1407 1.29209 -0.950059 
51 6.32586 16.063 6.11496 -0.423911 -0.764929 0.0282568 -0.0310712 -1.01865 0.860043 
144 9.16087 13.6848 6.14755 -0.0251248 -0.258208 -0.0812024 0.041664 -2.16565 2.81662 
140 8.44186 12.4544 6.10865 0.129444 -0.022556 -0.0516316 -0.248782 0.242652 0.657685 
35 10.5695 13.7485 6.14686 0.571522 0.552362 -0.0458361 -0.271162 1.36386 1.57749 
40 11.3002 12.5541 6.10124 -0.126547 -0.735482 -0.0375919 0.725555 0.277079 -0.464858 
57 11.2986 14.9775 6.14957 -0.388681 -0.103942 -0.0611576 -0.892592 0.474225 0.928487 
27 15.6078 7.84366 6.02205 0.150693 -0.165099 -0.213099 1.43641 -1.48536 -0.518682 
23 17.0256 7.89591 5.99315 -0.302975 0.0834334 0.260567 2.16884 1.02983 -0.356003 
39 19.1464 9.16283 6.00931 -0.563752 0.363252 0.0672178 0.588121 -0.532137 2.1932 
43 17.7268 9.11349 6.02671 0.844991 -0.186563 -0.163531 -0.00929811 0.749295 0.804594 
68 9.15589 16.1336 6.11824 0.0513778 -0.320987 0.0227253 -0.915115 0.690942 -1.40202 
56 19.1214 11.587 6.00042 0.144754 0.260727 0.00418713 0.115302 1.52604 -0.983116 
42 15.6006 10.261 6.03602 -0.269 0.0503978 -0.0236264 0.739565 -0.524822 1.52302 
285 19.1007 16.4305 6.12722 -0.12517 0.0283024 -0.154432 -0.00155866 0.476403 0.748809 
26 13.4589 8.9838 6.03292 0.0162459 -0.575334 -0.0504864 -0.421599 0.685907 1.28028 
22 14.8782 9.04568 6.01387 -0.0349758 -0.156488 0.11576 -1.37469 -0.190628 0.757532 
195 16.9822 15.1504 6.06746 -0.378398 0.741108 -0.0680371 -0.375428 0.233525 1.52224 
53 12.7141 15.0311 6.12504 -0.0105337 0.170118 -0.0648737 -0.414101 1.18852 0.802235 
289 17.6874 16.3799 6.07426 -0.170521 -0.244329 0.145305 0.0384453 -0.949607 0.921935 
58 13.4384 13.8214 6.09443 -0.225329 0.482891 -0.0290721 1.03109 -0.0942428 1.194 
41 13.4344 11.3978 6.09556 0.626491 -0.0759027 -0.263389 0.276736 -0.458508 1.13346 
199 15.566 15.1067 6.05427 -0.00952372 0.230903 0.203796 0.618837 0.919581 1.9384 
21 12.7213 10.1734 6.04907 0.192285 0.425089 0.148044 -0.207908 -1.1132 0.606985 
37 14.8648 11.4611 6.07021 -0.469107 -0.0908387 0.0560142 -0.392825 -0.185081 0.76571 
54 14.8461 13.897 6.09375 0.19401 -0.807887 -0.147836 -0.304193 -0.705997 -0.265318 
200 17.7035 13.9582 6.05565 0.204305 -0.603053 0.00612374 -0.670063 -0.0923149 -1.1289 
55 16.9899 12.7354 6.04112 -0.334608 0.0560311 0.0951236 -0.015455 0.584644 -1.2523 
59 15.5682 12.6836 6.08718 0.386023 0.315846 -0.114207 -0.0797297 0.0112788 -0.810482 
141 9.16539 11.247 6.06416 -0.0583328 0.0484688 0.167954 0.0529628 1.57843 -1.22458 
20 10.5762 11.3215 6.08606 0.536276 0.104318 -0.102521 -0.853309 1.22494 -0.08269 
138 6.32357 13.5984 6.09035 -0.334917 0.0529931 0.0633025 -0.907529 0.134551 0.131326 
194 14.8402 16.313 6.08813 -0.0104574 0.0538778 0.0263371 1.2073 -2.14771 2.45273 
38 17.0178 10.31 6.02412 -0.867796 0.334781 0.0106473 1.40913 0.58904 -2.09529 
52 10.5775 16.1919 6.1175 -0.397662 -0.447155 0.072956 1.35547 -1.56982 0.274425 
8 12.7518 7.74877 6.03789 -0.103703 0.628471 -0.102954 -0.0116053 1.66783 1.71759 
60 17.713 11.5321 6.01239 0.126064 0.202723 0.0704428 -0.443561 -0.371782 0.377671 
198 13.426 16.2642 6.09919 -0.0920496 -0.264214 0.0593597 0.325966 -0.447994 -0.657163 
36 12.7185 12.6051 6.0617 -0.26431 0.0856848 0.254155 -2.06604 -0.415631 0.585277 
7 10.6038 8.88631 6.07066 -0.232949 0.0891707 -0.0166029 1.2871 -0.350507 1.60177 
12 11.3331 7.68493 6.04996 0.121619 -0.162662 0.121348 1.41998 0.0112288 1.20862 
136 9.18438 8.81791 6.09166 0.0937833 -0.577567 -0.10598 1.4809 -0.815457 -0.48723 
196 19.1175 14.0062 6.0525 -0.188562 0.119834 -0.0292597 -0.169456 -0.978907 -1.7943 
25 11.3109 10.1172 6.06016 -0.271474 -0.0955444 0.102348 0.737111 -0.726609 -0.292568 
139 7.0288 12.3802 6.08732 0.155772 0.139379 0.0363858 0.790096 -1.19443 -1.72621 
142 7.02946 14.8305 6.12045 0.295474 0.577325 0.00203379 -0.604044 0.264304 -1.27492 
143 8.45037 14.8934 6.13213 -0.399372 0.309397 0.0199422 0.604199 0.79824 0.0967929 
292 6.32799 23.4284 6.07191 -0.621404 0.178748 0.0636195 0.160743 0.906863 -0.748741 
330 11.2751 24.7555 6.10361 0.486712 -0.221072 0.0501495 -0.926361 -0.511594 -0.861746 
318 7.02962 24.6585 6.03975 -0.0520969 0.243343 0.230158 -1.51053 0.249008 0.130082 
206 6.32131 20.9745 6.10709 0.107751 -0.0231254 -0.0541215 -1.79591 2.45874 -0.263707 
293 7.02022 22.212 6.09413 0.58271 -0.477308 0.0541528 1.62608 -1.09226 0.0430688 
66 7.01286 17.2948 6.13573 0.701432 0.261982 -0.174317 0.551192 0.540328 2.32578 
207 7.03787 19.7576 6.09007 -0.187234 -0.278958 0.0521692 -0.0828787 0.0864558 0.475645 
331 13.4135 23.5842 6.11883 -0.145044 -0.235222 -0.0616995 -0.11652 1.89551 -0.0539311 
65 6.32274 18.5215 6.10941 -0.198335 -0.04573 0.0382777 -0.172318 -0.35458 0.234636 
294 8.44016 22.2468 6.11896 -0.0205964 -0.270946 -0.160162 -0.0592694 1.86209 1.92547 
208 8.45266 19.7946 6.09125 -0.201488 0.0226749 -0.122104 -0.139916 0.0172189 1.65727 
348 16.944 24.8836 6.13922 0.213324 0.229762 0.0649534 1.27599 1.71966 0.0863603 
351 15.5302 24.844 6.17083 0.254337 0.326241 -0.0528413 0.684522 -0.639252 -1.31272 
295 9.16152 21.0246 6.07325 -0.422461 0.240696 0.129093 0.598684 0.607884 0.996903 
319 8.44106 24.7071 6.06942 0.244628 -0.514193 -0.0515735 -0.172347 0.314442 1.084 
320 9.14714 23.4744 6.09648 0.364428 0.440247 0.0583271 -1.84243 -0.656097 -0.460916 
309 10.5705 23.5177 6.12004 -0.316742 0.231342 -0.161993 0.293377 -1.12187 -1.513 
304 15.5495 19.9747 6.10704 -0.297444 -0.649551 0.00964702 0.64644 -0.883145 -0.446422 
328 12.6979 24.7956 6.09716 -0.289844 0.0606956 0.0975929 -0.472087 0.0239783 3.32427 
311 11.2839 22.3013 6.07707 -0.00453731 0.11327 0.0268539 0.507805 -0.774783 -0.974893 
303 19.0848 18.8537 6.09519 0.39508 0.0864518 0.160955 0.573185 -0.080903 2.95846 
288 15.5434 17.538 6.10784 0.456031 -0.403653 -0.0624926 1.74254 1.2336 0.288633 
284 16.9553 17.5807 6.09061 0.167378 -0.0385193 0.0326323 2.03819 1.04818 -0.256962 
306 19.8103 17.6515 6.14218 0.282627 -0.285021 -0.156124 0.1195 -0.675701 0.861983 
321 16.9585 22.4457 6.12706 -0.24535 0.320099 0.062153 -1.53301 0.393793 -0.7741 
323 17.6728 21.2386 6.15409 0.554197 -0.411714 -0.119434 0.222061 -0.416622 -0.322374 
302 16.9599 20.008 6.11881 0.133639 0.326746 0.0579991 0.128925 -0.545134 1.35983 
352 17.6655 23.6771 6.11594 -0.128896 -0.417809 -0.00230078 2.64271 -0.998085 0.343518 
322 19.0997 21.2817 6.13955 -0.597929 0.042097 -0.111226 -0.145047 -2.31351 -1.12523 
305 17.6736 18.7944 6.09857 0.0316713 0.504824 0.0421357 -1.75966 -0.52047 0.614836 
197 11.2854 17.4094 6.10746 0.293859 0.579732 -0.0994114 -1.25425 0.350337 -0.998989 
193 12.703 17.4742 6.10872 -0.0915953 -0.181905 -0.0522171 -0.954957 -2.59629 -1.1763 
324 19.8131 20.071 6.12645 0.0590741 -0.010616 -0.0859318 0.112643 1.28915 1.40915 
137 4.90868 13.5452 6.09765 0 0 0 0 0 0 
132 4.90868 11.0852 6.09765 0 0 0 0 0 0 
125 4.90868 8.62519 6.09765 0 0 0 0 0 0 
50 4.90868 16.0052 6.09765 0 0 0 0 0 0 
126 6.32043 8.70243 6.09881 0.384657 0.0996911 -0.11332 -0.681926 0.878735 -0.266133 
135 8.45747 10.0158 6.06887 -0.184511 0.205935 0.057096 -1.77587 -0.499652 -0.609543 
134 7.04061 9.94289 6.07466 0.0652854 -0.660293 0.00833868 -1.64748 -0.380131 -0.939649 
133 6.32073 11.1424 6.07022 -0.065575 0.644742 0.0842003 0.200849 1.63499 1.50649 
332 15.5409 22.4039 6.14565 0.1323 0.204212 -0.0597256 -0.515312 0.520772 1.49875 
192 10.568 18.6256 6.06613 0.186207 -0.135189 0.0497317 0.0764783 0.766199 -1.07107 
209 9.15483 18.5714 6.06995 -0.176607 -0.0419229 0.15383 0.664163 1.42836 -0.982496 
64 4.90868 18.4652 6.09765 0 0 0 0 0 0 
291 4.90868 23.3852 6.09765 0 0 0 0 0 0 
205 4.90868 20.9252 6.09765 0 0 0 0 0 0 
341 19.0764 23.7086 6.07108 0.294685 0.190708 0.197247 -0.341699 -1.19552 0.436439 
281 10.5704 21.075 6.05489 0.26664 -0.193191 0.0191618 -1.45531 0.0788951 -1.04263 
283 14.8332 18.7394 6.11658 -0.0745104 0.770848 -0.0534434 0.0194563 -0.930415 -0.252715 
329 14.8251 23.6217 6.18219 -0.0902914 -0.248539 -0.217096 0.406494 2.12863 0.805334 
361 19.7966 24.9254 6.0927 -0.121752 0.468788 -0.0416636 -0.254817 -0.164978 -0.27699 
312 13.4197 21.1434 6.05686 -0.270145 -0.0307612 0.00643604 -0.974721 -0.986083 -0.332588 
67 8.42645 17.3411 6.10448 0.51695 0.356822 -0.0272435 -0.715691 -0.698979 1.91187 
342 19.8074 22.5055 6.10371 -0.259519 -0.137212 -0.0412283 0.0468589 -0.754586 0.92539 
310 12.6973 22.3604 6.06659 0.197648 -0.296024 0.109286 -1.30016 0.226061 0.950242 
287 13.4219 18.6952 6.09166 -0.188323 0.212094 0.0689399 1.04144 -1.19624 -1.88757 
286 11.2873 19.8532 6.04582 0.0353652 0.245209 0.0357732 -0.84124 2.51719 -0.186494 
301 14.8319 21.1813 6.08099 -0.0650011 0.22884 0.159288 -2.38139 -2.94504 0.657315 
282 12.7083 19.913 6.06212 -0.243507 -0.155798 0.00914057 -1.83091 -1.68496 -1.82568 
238 19.7749 29.8156 6.1432 0.202348 -0.631828 -0.058798 0.147242 0.704415 1.23987 
350 13.4106 26.0188 6.10853 -0.152998 0.518791 0.0123049 0.436899 -1.454 1.33192 
365 15.5392 27.2825 6.12789 -0.190197 0.270704 -0.124787 -0.902566 0.910487 -0.378151 
363 11.2763 29.6594 6.10206 -0.261708 -0.234819 0.0843611 -1.9987 -1.72223 2.03466 
210 10.5486 30.8721 6.12992 0.713619 0.357065 0.00374169 0.807485 -1.32109 0.408794 
360 9.15592 28.3827 6.06926 -0.0899744 0.405975 0.132653 -0.577666 1.02682 -1.39772 
340 9.15896 25.9305 6.07335 0.23472 0.198703 0.0426319 1.61731 -1.56699 0.61705 
248 19.0547 33.4621 6.11112 0.142377 -0.283508 -0.119372 0.186548 -0.166201 0.734479 
218 14.8112 30.942 6.12059 -0.15826 -0.146276 -0.213512 0.983803 -0.587863 -1.5412 
253 19.7714 32.2421 6.1159 0.0364906 0.144554 0.0189586 1.16899 0.432584 0.15833 
345 10.5731 28.4222 6.10514 -0.17014 0.191503 -0.087374 -0.402299 -0.607899 0.492921 
347 14.8228 26.068 6.14337 -0.0997079 -0.548188 0.0052532 -0.681129 -0.13518 1.04664 
327 10.5775 25.9783 6.10055 -0.425993 -0.236588 -0.0264204 -0.403678 -1.05346 1.14217 
222 13.3968 30.9151 6.09308 -0.0990737 0.271545 0.115792 1.00815 1.16792 -0.501264 
366 17.6681 26.1066 6.136 -0.181154 -0.0911746 -0.105625 0.421603 0.417121 -0.454341 
374 9.14214 30.8449 6.14667 -0.046803 -0.404518 -0.179684 1.53379 -0.395437 -2.10861 
231 14.7961 33.3889 6.09366 0.104151 -0.21396 -0.0904388 -0.959652 -0.189272 1.00657 
211 12.691 29.6892 6.09928 -0.17576 0.106098 0.0110401 -1.15715 -1.16948 -0.0897522 
346 12.6929 27.2419 6.10802 0.324201 -0.0861863 -0.0588279 -0.505008 0.165842 0.628487 
216 10.5604 33.3309 6.13696 -0.377927 -0.076622 -0.161361 1.1529 -0.318999 -0.679133 
359 8.43715 29.6107 6.09 0.0311211 -0.23395 0.148714 0.626641 0.0590142 -0.190324 
371 6.31821 33.2468 6.11621 -0.0619593 -0.231062 -0.117459 0.124817 0.724242 -0.283713 
357 6.3157 30.786 6.09806 0.0925301 0.409088 0.0281576 -1.33095 2.12798 -1.3023 
236 15.5108 32.169 6.0896 0.239726 0.244565 0.0731786 -0.714239 -0.105407 -2.31963 
217 12.6814 32.1404 6.11166 -0.00321134 -0.414763 -0.110132 -1.41355 -1.52403 -0.0761193 
878 15.5142 41.9432 6.13401 -0.33662 0.0183976 -0.146289 1.5715 -1.06697 0.787982 
785 16.934 39.5196 6.06868 -0.788848 -0.293174 -0.00642676 1.01624 -0.0794425 -0.83936 
896 19.7657 41.9719 6.06165 -0.148292 0.203371 -0.0301079 2.16554 1.39975 -0.841322 
875 19.0478 40.7609 6.08274 -0.105136 -0.257226 -0.265268 -0.395685 0.425746 -1.71632 
251 15.5042 34.6105 6.07995 -0.0370666 0.34343 -0.0378698 -1.1405 -2.1723 -0.818106 
874 16.9159 41.966 6.11313 0.555285 -0.658487 -0.0636559 0.750926 -0.608358 0.525723 
383 6.31938 38.1719 6.11619 0.11425 0.180504 -0.00435712 0.813245 0.812303 -0.931799 
384 7.02328 36.9448 6.11046 -0.077401 -0.141112 -0.137553 1.14312 -1.5351 -1.12654 
387 7.02289 39.4123 6.12943 -0.231273 -0.578336 0.000759526 1.26756 -0.186239 -1.15719 
260 6.32086 40.632 6.10857 -0.015146 0.0357349 0.0330277 0.556123 -1.14218 0.0934965 
275 7.03026 41.8584 6.12282 -0.253342 0.0216492 -0.00689023 -0.470419 -0.646538 0.918588 
276 8.44131 41.8842 6.13867 -0.206683 -0.0918173 -0.143361 -1.47626 -1.088 -2.37839 
274 6.31861 43.0787 6.10404 0.279054 0.326064 -0.00961191 1.37937 0.842462 -0.512605 
370 4.90868 33.2252 6.09765 0 0 0 0 0 0 
356 4.90868 30.7652 6.09765 0 0 0 0 0 0 
336 4.90868 28.3052 6.09765 0 0 0 0 0 0 
316 4.90868 25.8452 6.09765 0 0 0 0 0 0 
372 7.01933 32.0188 6.10767 0.434404 0.226966 0.0804636 0.387335 -0.134428 -0.351752 
235 13.3859 33.3656 6.08379 -0.038489 -0.0484782 0.0167383 0.592841 -0.112801 0.28188 
338 7.032 27.1095 6.09792 0.33953 0.154298 -0.0440128 0.779786 0.282578 0.0622928 
237 17.6394 30.9885 6.10163 -0.0435598 0.203338 -0.0437922 -0.716239 1.71116 0.919896 
232 16.9284 32.2095 6.09305 -0.243142 -0.718163 0.0244163 0.691304 0.910452 -0.414961 
337 6.33382 28.3368 6.13962 -0.807989 -0.320169 -0.225941 0.878383 -0.0792499 -0.826764 
220 19.0678 28.5824 6.14538 0.0823043 0.00840186 -0.0379156 1.5308 -0.348284 -1.90807 
317 6.32002 25.8814 6.07282 0.103397 -0.0519836 0.0420482 -1.6876 -0.899989 0.615172 
349 11.2841 27.2057 6.10036 -0.139016 -0.0748188 0.0707434 0.0932578 -1.06251 0.787929 
252 17.6444 33.4142 6.08099 -0.109283 0.834108 0.0777106 -0.666689 -0.474002 -1.01 
219 16.9256 29.7716 6.10437 0.732318 -0.68254 0.0386805 -0.367027 1.11594 1.69548 
212 14.819 28.4971 6.11108 -0.083349 0.0315579 -0.039735 -0.614505 -1.26687 -0.736247 
223 15.5234 29.7224 6.09713 -0.283018 0.284144 0.128561 -0.092931 -0.385095 0.213837 
364 13.402 28.4724 6.09714 0.108897 -0.2895 0.032651 1.30724 2.2951 1.93014 
213 16.9507 27.3189 6.09187 0.0168646 0.209776 0.231918 -0.414897 -0.781425 -0.0115136 
381 9.14099 33.2936 6.1268 0.303681 0.321384 -0.00703583 1.7723 0.203418 -0.55641 
214 19.082 26.145 6.13761 -0.26188 -0.490814 -0.0688537 -1.75077 -0.493212 -1.48089 
225 19.783 27.3614 6.14389 0.479473 0.875621 0.0361849 -0.766067 -0.175743 1.14796 
221 11.2643 32.1106 6.12486 -0.00773157 -0.478924 -0.00318262 -1.31661 -0.0154709 1.44025 
233 19.0518 31.018 6.09148 0.214028 0.378178 0.208418 -0.00852409 0.659143 -0.895746 
224 17.6551 28.5494 6.12328 -0.370793 0.254736 -0.107053 -0.869301 1.55858 0.513657 
339 8.45373 27.1519 6.07318 -0.414176 -0.103237 0.053276 -0.0989303 -1.02139 0.120971 
373 8.44289 32.0635 6.13201 -0.686311 -0.025986 -0.00382955 0.296038 -1.15195 -0.437146 
358 7.01643 29.5688 6.11177 0.755486 0.118064 0.0284077 0.118764 -0.086331 2.03923 
389 9.14553 38.2082 6.11304 -0.161769 -0.115468 -0.0604816 -0.904246 -0.344924 0.700445 
277 9.13738 40.6577 6.12875 -0.156194 -0.189107 0.00702726 -0.950692 -0.898355 0.798969 
385 8.43664 36.9781 6.08598 0.0481302 -0.22986 0.0664417 -0.485444 -1.41336 1.23077 
229 10.5483 35.7805 6.09282 0.251532 -0.204206 -0.138639 1.31748 1.05464 -0.509987 
259 4.90868 40.6052 6.09765 0 0 0 0 0 0 
386 9.13889 35.7482 6.07141 -0.0753499 0.316778 0.161785 -1.08302 -0.949989 -0.901165 
388 8.43057 39.4266 6.14287 0.310749 0.217223 -0.0854949 -1.43777 1.34446 0.0236404 
273 4.90868 43.0652 6.09765 0 0 0 0 0 0 
234 11.2607 34.5585 6.08854 0.00707407 0.0941808 0.0358268 -1.3375 2.84044 0.711529 
382 4.90868 38.1452 6.09765 0 0 0 0 0 0 
377 4.90868 35.6852 6.09765 0 0 0 0 0 0 
262 12.6816 39.4836 6.0667 0.141479 -0.374407 0.102537 -0.376589 1.51435 -2.05698 
244 10.5585 38.2287 6.07869 -0.0725194 0.460921 -0.0589605 0.706423 -0.747246 -0.0417154 
267 13.3865 38.2457 6.09797 -0.218657 0.718958 -0.0662581 1.03608 -1.49516 -2.04663 
783 12.6732 41.9246 6.12291 0.203724 0.0716774 -0.0839922 -0.243145 -0.602729 0.7732 
879 17.6302 40.7364 6.07526 0.266087 0.769095 0.127427 0.411551 0.217584 -0.396844 
788 13.3898 40.711 6.09669 0.156558 -0.254868 0.00530982 -0.0568132 -1.53961 -0.63483 
269 17.6276 35.867 6.06812 0.400266 -0.606273 -0.100952 -0.308263 -0.11458 0.172483 
799 9.14001 43.1127 6.10232 -0.10838 -0.044028 0.159618 -0.292313 1.85069 -0.0176477 
782 10.5489 43.1197 6.10624 0.306786 -0.198679 0.000703842 0.734306 0.691682 -0.449011 
247 16.9211 34.6313 6.08323 0.123334 0.33805 -0.0626258 0.682078 1.42649 2.05355 