ITEM: TIMESTEP
6500
ITEM: NUMBER OF ATOMS
4798
ITEM: BOX BOUNDS ff ff ff
-10.3577 110.358
-10.0998 131.9
-100.402 112.598
ITEM: ATOMS id x y z fx fy fz vx vy vz 
72 -0.062301 2.4752 6.09765 0 0 0 0 0 0 
110 4.19854 7.39519 6.09765 0 0 0 0 0 0 
109 2.77826 7.39519 6.09765 0 0 0 0 0 0 
93 4.19854 4.9352 6.09765 0 0 0 0 0 0 
92 2.77826 4.9352 6.09765 0 0 0 0 0 0 
91 2.06812 6.16519 6.09765 0 0 0 0 0 0 
87 0.647839 6.16519 6.09765 0 0 0 0 0 0 
86 -0.062301 7.39519 6.09765 0 0 0 0 0 0 
81 4.19854 2.4752 6.09765 0 0 0 0 0 0 
80 2.77826 2.4752 6.09765 0 0 0 0 0 0 
79 2.06812 3.7052 6.09765 0 0 0 0 0 0 
78 0.647839 3.7052 6.09765 0 0 0 0 0 0 
77 -0.062301 4.9352 6.09765 0 0 0 0 0 0 
76 4.19854 0.015197 6.09765 0 0 0 0 0 0 
75 2.77826 0.015197 6.09765 0 0 0 0 0 0 
74 2.06812 1.2452 6.09765 0 0 0 0 0 0 
73 0.647839 1.2452 6.09765 0 0 0 0 0 0 
6 -0.062301 12.3152 6.09765 0 0 0 0 0 0 
131 4.19854 12.3152 6.09765 0 0 0 0 0 0 
130 2.77826 12.3152 6.09765 0 0 0 0 0 0 
124 4.19854 9.85519 6.09765 0 0 0 0 0 0 
123 2.77826 9.85519 6.09765 0 0 0 0 0 0 
122 2.06812 11.0852 6.09765 0 0 0 0 0 0 
117 0.647839 11.0852 6.09765 0 0 0 0 0 0 
108 2.06812 8.62519 6.09765 0 0 0 0 0 0 
100 0.647839 8.62519 6.09765 0 0 0 0 0 0 
99 -0.062301 9.85519 6.09765 0 0 0 0 0 0 
34 4.19854 14.7752 6.09765 0 0 0 0 0 0 
33 2.77826 14.7752 6.09765 0 0 0 0 0 0 
32 2.06812 16.0052 6.09765 0 0 0 0 0 0 
31 0.647839 16.0052 6.09765 0 0 0 0 0 0 
19 2.06812 13.5452 6.09765 0 0 0 0 0 0 
18 0.647839 13.5452 6.09765 0 0 0 0 0 0 
17 -0.062301 14.7752 6.09765 0 0 0 0 0 0 
300 4.19854 24.6152 6.09765 0 0 0 0 0 0 
299 2.77826 24.6152 6.09765 0 0 0 0 0 0 
204 4.19854 22.1552 6.09765 0 0 0 0 0 0 
203 2.77826 22.1552 6.09765 0 0 0 0 0 0 
202 2.06812 23.3852 6.09765 0 0 0 0 0 0 
191 0.647839 23.3852 6.09765 0 0 0 0 0 0 
190 -0.062301 24.6152 6.09765 0 0 0 0 0 0 
71 2.06812 20.9252 6.09765 0 0 0 0 0 0 
70 0.647839 20.9252 6.09765 0 0 0 0 0 0 
69 -0.062301 22.1552 6.09765 0 0 0 0 0 0 
63 4.19854 19.6952 6.09765 0 0 0 0 0 0 
62 2.77826 19.6952 6.09765 0 0 0 0 0 0 
49 4.19854 17.2352 6.09765 0 0 0 0 0 0 
48 2.77826 17.2352 6.09765 0 0 0 0 0 0 
47 2.06812 18.4652 6.09765 0 0 0 0 0 0 
46 0.647839 18.4652 6.09765 0 0 0 0 0 0 
45 -0.062301 19.6952 6.09765 0 0 0 0 0 0 
30 -0.062301 17.2352 6.09765 0 0 0 0 0 0 
355 4.19854 31.9952 6.09765 0 0 0 0 0 0 
354 2.77826 31.9952 6.09765 0 0 0 0 0 0 
353 2.06812 33.2252 6.09765 0 0 0 0 0 0 
344 0.647839 33.2252 6.09765 0 0 0 0 0 0 
335 4.19854 29.5352 6.09765 0 0 0 0 0 0 
334 2.77826 29.5352 6.09765 0 0 0 0 0 0 
333 2.06812 30.7652 6.09765 0 0 0 0 0 0 
326 0.647839 30.7652 6.09765 0 0 0 0 0 0 
325 -0.062301 31.9952 6.09765 0 0 0 0 0 0 
315 4.19854 27.0752 6.09765 0 0 0 0 0 0 
314 2.77826 27.0752 6.09765 0 0 0 0 0 0 
313 2.06812 28.3052 6.09765 0 0 0 0 0 0 
308 0.647839 28.3052 6.09765 0 0 0 0 0 0 
307 -0.062301 29.5352 6.09765 0 0 0 0 0 0 
298 2.06812 25.8452 6.09765 0 0 0 0 0 0 
297 0.647839 25.8452 6.09765 0 0 0 0 0 0 
296 -0.062301 27.0752 6.09765 0 0 0 0 0 0 
215 -0.062301 36.9152 6.09765 0 0 0 0 0 0 
376 4.19854 36.9152 6.09765 0 0 0 0 0 0 
375 2.77826 36.9152 6.09765 0 0 0 0 0 0 
369 4.19854 34.4552 6.09765 0 0 0 0 0 0 
368 2.77826 34.4552 6.09765 0 0 0 0 0 0 
367 2.06812 35.6852 6.09765 0 0 0 0 0 0 
362 0.647839 35.6852 6.09765 0 0 0 0 0 0 
343 -0.062301 34.4552 6.09765 0 0 0 0 0 0 
258 4.19854 41.8352 6.09765 0 0 0 0 0 0 
257 2.77826 41.8352 6.09765 0 0 0 0 0 0 
256 2.06812 43.0652 6.09765 0 0 0 0 0 0 
255 0.647839 43.0652 6.09765 0 0 0 0 0 0 
243 4.19854 39.3752 6.09765 0 0 0 0 0 0 
242 2.77826 39.3752 6.09765 0 0 0 0 0 0 
241 2.06812 40.6052 6.09765 0 0 0 0 0 0 
240 0.647839 40.6052 6.09765 0 0 0 0 0 0 
239 -0.062301 41.8352 6.09765 0 0 0 0 0 0 
228 2.06812 38.1452 6.09765 0 0 0 0 0 0 
227 0.647839 38.1452 6.09765 0 0 0 0 0 0 
226 -0.062301 39.3752 6.09765 0 0 0 0 0 0 
254 -0.062301 44.2952 6.09765 0 0 0 0 0 0 
905 4.19854 51.6752 6.09765 0 0 0 0 0 0 
904 2.77826 51.6752 6.09765 0 0 0 0 0 0 
890 4.19854 49.2152 6.09765 0 0 0 0 0 0 
889 2.77826 49.2152 6.09765 0 0 0 0 0 0 
888 2.06812 50.4452 6.09765 0 0 0 0 0 0 
887 0.647839 50.4452 6.09765 0 0 0 0 0 0 
886 -0.062301 51.6752 6.09765 0 0 0 0 0 0 
794 4.19854 46.7552 6.09765 0 0 0 0 0 0 
793 2.77826 46.7552 6.09765 0 0 0 0 0 0 
792 2.06812 47.9852 6.09765 0 0 0 0 0 0 
781 0.647839 47.9852 6.09765 0 0 0 0 0 0 
780 -0.062301 49.2152 6.09765 0 0 0 0 0 0 
280 2.06812 45.5252 6.09765 0 0 0 0 0 0 
279 0.647839 45.5252 6.09765 0 0 0 0 0 0 
278 -0.062301 46.7552 6.09765 0 0 0 0 0 0 
272 4.19854 44.2952 6.09765 0 0 0 0 0 0 
271 2.77826 44.2952 6.09765 0 0 0 0 0 0 
959 4.19854 59.0552 6.09765 0 0 0 0 0 0 
958 2.77826 59.0552 6.09765 0 0 0 0 0 0 
957 2.06812 60.2852 6.09765 0 0 0 0 0 0 
952 0.647839 60.2852 6.09765 0 0 0 0 0 0 
945 4.19854 56.5952 6.09765 0 0 0 0 0 0 
944 2.77826 56.5952 6.09765 0 0 0 0 0 0 
943 2.06812 57.8252 6.09765 0 0 0 0 0 0 
934 0.647839 57.8252 6.09765 0 0 0 0 0 0 
933 -0.062301 59.0552 6.09765 0 0 0 0 0 0 
925 4.19854 54.1352 6.09765 0 0 0 0 0 0 
924 2.77826 54.1352 6.09765 0 0 0 0 0 0 
923 2.06812 55.3652 6.09765 0 0 0 0 0 0 
916 0.647839 55.3652 6.09765 0 0 0 0 0 0 
915 -0.062301 56.5952 6.09765 0 0 0 0 0 0 
903 2.06812 52.9052 6.09765 0 0 0 0 0 0 
898 0.647839 52.9052 6.09765 0 0 0 0 0 0 
897 -0.062301 54.1352 6.09765 0 0 0 0 0 0 
805 -0.062301 61.5152 6.09765 0 0 0 0 0 0 
966 4.19854 61.5152 6.09765 0 0 0 0 0 0 
965 2.77826 61.5152 6.09765 0 0 0 0 0 0 
862 4.19854 68.8952 6.09765 0 0 0 0 0 0 
861 2.77826 68.8952 6.09765 0 0 0 0 0 0 
848 4.19854 66.4352 6.09765 0 0 0 0 0 0 
847 2.77826 66.4352 6.09765 0 0 0 0 0 0 
846 2.06812 67.6652 6.09765 0 0 0 0 0 0 
845 0.647839 67.6652 6.09765 0 0 0 0 0 0 
844 -0.062301 68.8952 6.09765 0 0 0 0 0 0 
833 4.19854 63.9752 6.09765 0 0 0 0 0 0 
832 2.77826 63.9752 6.09765 0 0 0 0 0 0 
831 2.06812 65.2052 6.09765 0 0 0 0 0 0 
830 0.647839 65.2052 6.09765 0 0 0 0 0 0 
829 -0.062301 66.4352 6.09765 0 0 0 0 0 0 
818 2.06812 62.7452 6.09765 0 0 0 0 0 0 
817 0.647839 62.7452 6.09765 0 0 0 0 0 0 
816 -0.062301 63.9752 6.09765 0 0 0 0 0 0 
1828 4.19854 76.2752 6.09765 0 0 0 0 0 0 
1827 2.77826 76.2752 6.09765 0 0 0 0 0 0 
1826 2.06812 77.5052 6.09765 0 0 0 0 0 0 
1821 0.647839 77.5052 6.09765 0 0 0 0 0 0 
1813 4.19854 73.8152 6.09765 0 0 0 0 0 0 
1812 2.77826 73.8152 6.09765 0 0 0 0 0 0 
1811 2.06812 75.0452 6.09765 0 0 0 0 0 0 
1810 0.647839 75.0452 6.09765 0 0 0 0 0 0 
1809 -0.062301 76.2752 6.09765 0 0 0 0 0 0 
1717 4.19854 71.3552 6.09765 0 0 0 0 0 0 
1716 2.77826 71.3552 6.09765 0 0 0 0 0 0 
1715 2.06812 72.5852 6.09765 0 0 0 0 0 0 
1704 0.647839 72.5852 6.09765 0 0 0 0 0 0 
1703 -0.062301 73.8152 6.09765 0 0 0 0 0 0 
870 2.06812 70.1252 6.09765 0 0 0 0 0 0 
869 0.647839 70.1252 6.09765 0 0 0 0 0 0 
868 -0.062301 71.3552 6.09765 0 0 0 0 0 0 
1728 -0.062301 86.1152 6.09765 0 0 0 0 0 0 
1889 4.19854 86.1152 6.09765 0 0 0 0 0 0 
1888 2.77826 86.1152 6.09765 0 0 0 0 0 0 
1882 4.19854 83.6552 6.09765 0 0 0 0 0 0 
1881 2.77826 83.6552 6.09765 0 0 0 0 0 0 
1880 2.06812 84.8852 6.09765 0 0 0 0 0 0 
1875 0.647839 84.8852 6.09765 0 0 0 0 0 0 
1868 4.19854 81.1952 6.09765 0 0 0 0 0 0 
1867 2.77826 81.1952 6.09765 0 0 0 0 0 0 
1866 2.06812 82.4252 6.09765 0 0 0 0 0 0 
1857 0.647839 82.4252 6.09765 0 0 0 0 0 0 
1856 -0.062301 83.6552 6.09765 0 0 0 0 0 0 
1848 4.19854 78.7352 6.09765 0 0 0 0 0 0 
1847 2.77826 78.7352 6.09765 0 0 0 0 0 0 
1846 2.06812 79.9652 6.09765 0 0 0 0 0 0 
1839 0.647839 79.9652 6.09765 0 0 0 0 0 0 
1838 -0.062301 81.1952 6.09765 0 0 0 0 0 0 
1820 -0.062301 78.7352 6.09765 0 0 0 0 0 0 
1741 2.06812 87.3452 6.09765 0 0 0 0 0 0 
1740 0.647839 87.3452 6.09765 0 0 0 0 0 0 
2677 4.19854 95.9552 6.09765 0 0 0 0 0 0 
2676 2.77826 95.9552 6.09765 0 0 0 0 0 0 
1793 2.06812 94.7252 6.09765 0 0 0 0 0 0 
1792 0.647839 94.7252 6.09765 0 0 0 0 0 0 
1791 -0.062301 95.9552 6.09765 0 0 0 0 0 0 
1785 4.19854 93.4952 6.09765 0 0 0 0 0 0 
1784 2.77826 93.4952 6.09765 0 0 0 0 0 0 
1771 4.19854 91.0352 6.09765 0 0 0 0 0 0 
1770 2.77826 91.0352 6.09765 0 0 0 0 0 0 
1769 2.06812 92.2652 6.09765 0 0 0 0 0 0 
1768 0.647839 92.2652 6.09765 0 0 0 0 0 0 
1767 -0.062301 93.4952 6.09765 0 0 0 0 0 0 
1756 4.19854 88.5752 6.09765 0 0 0 0 0 0 
1755 2.77826 88.5752 6.09765 0 0 0 0 0 0 
1754 2.06812 89.8052 6.09765 0 0 0 0 0 0 
1753 0.647839 89.8052 6.09765 0 0 0 0 0 0 
1752 -0.062301 91.0352 6.09765 0 0 0 0 0 0 
1739 -0.062301 88.5752 6.09765 0 0 0 0 0 0 
2663 -0.062301 98.4152 6.09765 0 0 0 0 0 0 
2808 4.19854 103.335 6.09765 0 0 0 0 0 0 
2807 2.77826 103.335 6.09765 0 0 0 0 0 0 
2806 2.06812 104.565 6.09765 0 0 0 0 0 0 
2799 0.647839 104.565 6.09765 0 0 0 0 0 0 
2788 4.19854 100.875 6.09765 0 0 0 0 0 0 
2787 2.77826 100.875 6.09765 0 0 0 0 0 0 
2786 2.06812 102.105 6.09765 0 0 0 0 0 0 
2781 0.647839 102.105 6.09765 0 0 0 0 0 0 
2780 -0.062301 103.335 6.09765 0 0 0 0 0 0 
2773 4.19854 98.4152 6.09765 0 0 0 0 0 0 
2772 2.77826 98.4152 6.09765 0 0 0 0 0 0 
2771 2.06812 99.6452 6.09765 0 0 0 0 0 0 
2770 0.647839 99.6452 6.09765 0 0 0 0 0 0 
2769 -0.062301 100.875 6.09765 0 0 0 0 0 0 
2675 2.06812 97.1852 6.09765 0 0 0 0 0 0 
2664 0.647839 97.1852 6.09765 0 0 0 0 0 0 
2849 4.19854 110.715 6.09765 0 0 0 0 0 0 
2848 2.77826 110.715 6.09765 0 0 0 0 0 0 
2842 4.19854 108.255 6.09765 0 0 0 0 0 0 
2841 2.77826 108.255 6.09765 0 0 0 0 0 0 
2840 2.06812 109.485 6.09765 0 0 0 0 0 0 
2835 0.647839 109.485 6.09765 0 0 0 0 0 0 
2828 4.19854 105.795 6.09765 0 0 0 0 0 0 
2827 2.77826 105.795 6.09765 0 0 0 0 0 0 
2826 2.06812 107.025 6.09765 0 0 0 0 0 0 
2817 0.647839 107.025 6.09765 0 0 0 0 0 0 
2816 -0.062301 108.255 6.09765 0 0 0 0 0 0 
2798 -0.062301 105.795 6.09765 0 0 0 0 0 0 
2716 4.19854 113.175 6.09765 0 0 0 0 0 0 
2715 2.77826 113.175 6.09765 0 0 0 0 0 0 
2701 2.06812 111.945 6.09765 0 0 0 0 0 0 
2700 0.647839 111.945 6.09765 0 0 0 0 0 0 
2699 -0.062301 113.175 6.09765 0 0 0 0 0 0 
2688 -0.062301 110.715 6.09765 0 0 0 0 0 0 
2712 -0.062301 115.635 6.09765 0 0 0 0 0 0 
3636 4.19854 120.555 6.09765 0 0 0 0 0 0 
3635 2.77826 120.555 6.09765 0 0 0 0 0 0 
3634 2.06812 121.785 6.09765 0 0 0 0 0 0 
3623 0.647839 121.785 6.09765 0 0 0 0 0 0 
2753 2.06812 119.325 6.09765 0 0 0 0 0 0 
2752 0.647839 119.325 6.09765 0 0 0 0 0 0 
2751 -0.062301 120.555 6.09765 0 0 0 0 0 0 
2745 4.19854 118.095 6.09765 0 0 0 0 0 0 
2744 2.77826 118.095 6.09765 0 0 0 0 0 0 
2731 4.19854 115.635 6.09765 0 0 0 0 0 0 
2730 2.77826 115.635 6.09765 0 0 0 0 0 0 
2729 2.06812 116.865 6.09765 0 0 0 0 0 0 
2728 0.647839 116.865 6.09765 0 0 0 0 0 0 
2727 -0.062301 118.095 6.09765 0 0 0 0 0 0 
2714 2.06812 114.405 6.09765 0 0 0 0 0 0 
2713 0.647839 114.405 6.09765 0 0 0 0 0 0 
28 17.7602 6.72321 6.06191 -0.0255398 -0.266913 -0.151123 1.42217 -0.503332 -1.82848 
90 11.5508 0.457892 6.15181 -0.094019 0.354374 0.046186 1.19096 1.68743 0.561362 
96 7.09072 2.61545 6.10623 -0.457307 0.0662412 0.0830866 2.4782 1.16516 2.06551 
104 17.1716 0.698623 6.30589 0.097826 0.253604 0.0234082 -0.348528 1.40878 1.05628 
106 13.6267 1.75546 6.26375 -0.00763044 -0.430352 0.0486228 -0.541544 0.336892 1.27058 
105 11.425 2.83475 6.13781 -0.204893 0.570405 0.0391492 -2.45759 -0.578065 -0.552583 
102 12.8558 2.9244 6.2127 -0.413699 0.307359 -0.178923 0.518682 2.32739 -0.214139 
120 15.7151 3.03009 6.15377 -0.584465 -0.0755196 0.07196 -1.76559 0.337327 1.87872 
88 10.7074 1.60622 6.13768 0.807576 -0.522182 0.0716183 -0.123404 -0.246385 0.169583 
103 15.0077 1.79563 6.16917 0.913714 0.111891 -0.0873566 -2.00972 -1.50133 0.0277334 
118 11.3727 5.26092 6.12388 -0.109887 -0.0469813 0.00523063 0.245265 -1.80926 1.45851 
115 9.24894 3.94196 6.08006 -0.352209 0.438112 0.131332 0.0959197 -1.12809 0.211842 
9 14.9013 6.64361 6.0929 0.28207 -0.648117 0.0102336 0.534375 0.310281 0.905909 
101 10.6695 4.0314 6.11435 0.102432 -0.197506 0.00545113 0.961085 -0.299519 2.60077 
114 8.49645 5.15066 6.10571 -0.058494 -0.940177 -0.0412333 -0.418721 0.931482 2.00367 
10 17.0691 5.49578 6.06722 -0.214169 0.108295 0.0634678 -1.09396 0.0622295 -1.40055 
2 12.782 5.33742 6.1384 0.443446 0.209798 -0.042758 1.30241 -0.663707 0.0771282 
4 17.1284 3.09254 6.21206 0.211852 -0.436456 -0.175121 -1.25626 1.06719 -0.516391 
85 8.56562 0.327858 6.13829 -0.246673 -0.421329 -0.01172 -0.149583 1.85816 0.106018 
24 19.1693 6.76168 6.00382 0.391592 0.455464 0.110141 -0.882783 -0.0120807 -0.238809 
121 17.9001 1.90932 6.24258 -0.409232 -0.448252 0.0902882 -0.502991 1.25258 1.8685 
119 13.5368 4.15807 6.167 0.275815 -0.271655 -0.0642014 -0.801998 1.39985 -1.4712 
11 19.228 4.34157 6.10666 0.00129043 0.112738 -0.190742 1.08862 2.30053 1.05022 
14 15.651 5.44418 6.07256 -0.0703227 0.205733 0.0839704 1.38103 -0.720181 -0.902782 
13 13.4908 6.563 6.11649 -0.202604 -0.0650938 0.0505058 -1.28294 1.54962 -0.396446 
15 17.8143 4.30634 6.10738 0.182825 0.278617 0.0751917 -0.77793 -0.451439 0.775154 
3 14.9571 4.21687 6.12818 -0.0555568 0.0889308 0.0394097 -1.56926 1.86473 -1.2454 
107 15.8235 0.646284 6.04101 -0.272318 0.170991 0.0557876 0.13981 -1.39899 1.03813 
98 9.31119 1.51051 6.11511 0.0778539 0.889426 -0.0187246 0.778079 -0.831163 -1.17456 
97 8.53532 2.7086 6.09534 0.158984 -0.112675 0.0499484 0.771859 0.846219 1.48543 
95 6.3429 3.8171 6.11941 0.0531359 -0.36377 -0.0617927 -1.00467 -0.69722 0.0435269 
113 7.06822 5.04735 6.11902 0.487781 0.0290993 -0.0587814 1.33788 0.408163 1.6727 
1 10.6359 6.45692 6.13318 -0.624762 -0.105492 -0.112349 1.00967 -0.300723 0.184692 
129 9.20958 6.37408 6.10756 0.246146 0.253556 0.0671835 1.33926 0.405365 -0.926577 
127 7.04826 7.49439 6.11063 0.580858 -0.25271 -0.0594992 -0.256473 1.27685 -0.280328 
128 8.47489 7.577 6.10604 -0.264707 -0.10074 0.0599114 -0.268925 -0.833508 -1.85517 
112 6.3449 6.24964 6.10933 -0.829333 0.320188 0.037716 -0.371167 0.588778 0.380505 
94 4.90868 3.7052 6.09765 0 0 0 0 0 0 
111 4.90868 6.16519 6.09765 0 0 0 0 0 0 
82 4.90868 1.2452 6.09765 0 0 0 0 0 0 
89 12.9067 0.557794 6.40573 -0.545721 -0.0935439 -0.0499544 0.455868 0.0728481 0.0482032 
5 19.2868 1.9289 6.24117 0.14806 0.121992 -0.0201805 -0.680251 0.519225 0.940846 
84 7.194 0.242238 6.07402 -0.0743197 -0.208308 0.0814775 0.469081 -0.893985 2.1591 
83 6.34516 1.37253 6.12403 0.141495 -0.047509 -0.208628 -1.07039 -1.32201 1.66553 
51 6.32139 16.0795 6.08564 0.185341 -0.600122 0.0705652 0.586834 -0.754559 2.59233 
144 9.15806 13.7016 6.08161 0.547325 0.6484 0.0559343 -0.302005 0.966726 1.67376 
140 8.45077 12.4739 6.09815 0.206864 -0.704622 -0.132052 0.0844404 0.111578 -0.960108 
35 10.5772 13.7775 6.0884 -0.0386913 -0.737118 0.0767471 -1.61971 0.861254 0.555535 
40 11.2913 12.5572 6.09918 0.547892 0.135155 0.00711015 -0.915592 -0.430913 -0.462399 
57 11.2981 14.9981 6.12333 -0.464299 -0.135362 0.0408377 -0.133719 0.68852 -0.739314 
27 15.6063 7.85825 6.1068 0.225404 0.219145 -0.105412 -0.0569161 -0.370102 -1.37322 
23 17.0187 7.9133 6.06481 0.440441 0.27007 0.221323 0.351576 -0.54538 1.26693 
39 19.1531 9.19168 6.04159 -0.100136 -0.266542 0.178082 -2.43024 0.998752 3.297 
43 17.7422 9.13206 6.10488 -0.126154 -0.50112 -0.119902 1.103 -0.512393 -0.507284 
68 9.14846 16.1593 6.1154 0.806312 -0.536868 0.0419088 -0.620083 -0.270536 -1.02753 
56 19.1152 11.6097 6.14126 0.74536 -0.312635 -0.0887531 2.09063 2.73293 1.70015 
42 15.6003 10.2771 6.10869 -0.3507 -0.264211 0.110047 -0.652547 -1.04129 -0.243533 
285 19.0933 16.4427 6.14989 0.436156 -0.0759557 -0.141975 0.0990963 1.16938 -0.182768 
26 13.465 8.98611 6.13807 -0.457181 -0.0122495 0.0270105 0.534888 -0.583102 0.385979 
22 14.8786 9.05912 6.1109 0.0906941 -0.0890103 0.0264064 0.950217 0.151669 0.64895 
195 16.9842 15.1725 6.13757 -0.470497 0.0936752 0.0621094 0.173178 1.09945 0.387972 
53 12.7114 15.054 6.15016 0.16463 -0.245095 -0.0676871 0.546263 -0.00208655 0.34456 
289 17.6848 16.4002 6.13735 0.261836 -0.576783 0.0768869 0.216029 -0.420463 1.40109 
58 13.4429 13.8383 6.14333 -0.717273 0.24714 0.0085198 -0.0725913 1.18328 1.78768 
41 13.4461 11.4056 6.1321 -0.281406 0.189013 -0.126591 0.158148 -2.21297 -0.440204 
199 15.5637 15.1125 6.14153 0.297775 0.181938 0.140589 0.442334 2.27016 0.996933 
21 12.7213 10.1872 6.13923 0.665173 -0.134888 -0.0375549 -1.02796 1.12089 0.449682 
37 14.8607 11.4732 6.09965 0.0563057 -0.225847 0.259975 0.327488 0.580352 1.34513 
54 14.8508 13.8974 6.18773 0.119425 -0.420859 -0.307011 -1.20568 -1.39981 0.882804 
200 17.7054 13.9673 6.16233 -0.216316 -0.136758 -0.170421 -1.81261 -0.514069 -1.76063 
55 16.9812 12.7492 6.12816 0.261287 -0.204743 0.274948 0.899614 1.28999 -1.19525 
59 15.5717 12.6841 6.1592 -0.0470776 0.690471 -0.0891161 1.80591 -0.707172 -0.443195 
141 9.17262 11.2514 6.08957 0.0900325 0.42113 0.125388 0.581352 0.16808 0.512763 
20 10.5891 11.3226 6.11945 -0.202907 0.149556 -0.161985 0.06706 1.97523 -0.628933 
138 6.3264 13.621 6.09081 -0.000613126 -0.378475 -0.0269752 -0.0331751 0.122314 1.25532 
194 14.839 16.3173 6.14483 0.1656 0.395527 0.0177797 1.34861 -0.900963 -0.326817 
38 17.0147 10.3188 6.14625 -0.552231 0.500051 -0.162922 0.962646 -0.459734 0.08684 
52 10.5633 16.2039 6.13608 0.527282 0.00203009 -0.0677564 2.42643 -1.81186 0.392521 
8 12.75 7.75458 6.14853 0.166319 0.429974 -0.14882 0.219374 1.04203 0.110712 
60 17.706 11.5421 6.16642 0.260171 0.438461 -0.115356 2.84881 0.310427 2.97665 
198 13.4257 16.2772 6.14239 0.0965537 -0.0450894 0.0220921 -0.482461 0.977435 0.370612 
36 12.7187 12.6155 6.10267 -0.144806 -0.0386273 0.172011 0.290013 1.03679 2.64023 
7 10.6077 8.89258 6.11536 -0.353866 -0.493038 0.106925 1.99905 2.16836 -0.18567 
12 11.3346 7.68383 6.12931 0.247231 0.387094 -0.0132779 0.915003 0.128375 1.91094 
136 9.18541 8.80721 6.12411 0.45092 0.114769 -0.0864696 -0.665387 0.83698 -1.44705 
196 19.1147 14.0136 6.14228 0.222762 0.49435 0.0579871 -1.70152 -1.50944 -2.47091 
25 11.314 10.1197 6.11375 -0.0922781 -0.0201147 0.0506661 1.55167 -0.131426 -0.812607 
139 7.04074 12.394 6.08859 -0.212784 0.430753 0.0196559 0.698689 -0.365767 -1.36666 
142 7.04658 14.8598 6.08791 -0.621609 0.0141765 0.060308 0.584723 0.498046 -1.06049 
143 8.45605 14.9263 6.10577 -0.348239 -0.515421 -0.0563268 1.25852 -2.74851 0.528267 
292 6.3225 23.4356 6.13486 0.0414387 -0.251543 -0.000925194 -0.185289 -2.13969 -0.027718 
330 11.2727 24.7704 6.10102 0.322941 -0.486556 0.222982 0.911522 0.850924 -1.13096 
318 7.03483 24.6653 6.12819 -0.456501 0.407097 -0.00761954 -1.02901 -0.458099 -0.52795 
206 6.32493 20.96 6.14534 -0.14932 0.777835 -0.190797 -0.461698 -0.778371 -1.48575 
293 7.02997 22.2096 6.14767 -0.178589 -0.352289 -0.0399561 -2.67278 0.571427 1.02308 
66 7.03849 17.303 6.09136 -0.306336 0.34243 -0.0240363 -0.610118 0.775298 3.77054 
207 7.03293 19.7467 6.11174 -0.11072 -0.0764434 0.062228 1.28952 -1.1531 0.351445 
331 13.4068 23.5876 6.15888 0.249973 0.0912596 0.0978182 -1.11803 -0.197012 1.54746 
65 6.31856 18.5194 6.09117 0.268474 -0.15066 0.0536508 -1.33845 0.825453 1.27479 
294 8.4429 22.2482 6.13823 -0.0163509 0.108865 -0.121758 -2.71363 2.01897 -0.101259 
208 8.44064 19.7963 6.11423 0.291942 0.4814 -0.0592112 1.11474 -0.520961 -0.959222 
348 16.9553 24.8876 6.11422 -0.302329 0.370061 0.0872555 -0.265531 0.540751 2.92843 
351 15.5429 24.858 6.11732 -0.406022 0.15859 0.238804 0.638604 -0.725304 1.64023 
295 9.15221 21.0339 6.10232 0.0283835 -0.402008 0.148119 0.141461 1.83187 1.2856 
319 8.44227 24.7171 6.12298 0.274903 -0.99923 -0.0148104 0.159612 1.66881 -1.80157 
320 9.15067 23.476 6.11318 0.206892 0.900169 0.133903 -1.09504 -0.257767 -0.652214 
309 10.5747 23.5322 6.14313 -0.511926 -0.0921368 -0.100529 3.10843 0.783111 -1.50671 
304 15.5418 19.9815 6.14124 0.101161 0.144862 0.0809226 0.915151 -0.869332 -0.253692 
328 12.693 24.801 6.12261 -0.367719 0.217415 0.0547147 -0.54944 0.0896748 1.90813 
311 11.2811 22.3121 6.16203 0.122738 -0.247936 -0.0510705 2.2256 -0.165127 -0.116576 
303 19.0977 18.8689 6.1012 -0.465039 -0.402957 0.196798 0.0883155 0.811761 0.551638 
288 15.5537 17.5459 6.15642 0.0486098 -0.0754807 -0.05105 -1.45327 -2.73506 1.04443 
284 16.9709 17.5979 6.16625 -0.558394 0.202948 -0.116 -1.39726 1.91991 -0.459646 
306 19.8161 17.6545 6.12173 -0.296711 0.369724 0.0565275 2.15936 1.93754 0.199045 
321 16.9469 22.4549 6.14603 0.104376 0.563995 0.137693 0.0555906 1.06178 -0.488955 
323 17.6644 21.2578 6.16476 0.223657 -0.644086 -0.109871 0.864966 -0.72104 0.168792 
302 16.9552 20.0324 6.16083 0.111689 -0.230194 -0.0556919 0.722217 -0.383916 2.22801 
352 17.6612 23.6782 6.14292 0.138305 -0.14464 -0.165749 -0.376472 -2.40634 -0.764138 
322 19.0799 21.2906 6.13761 -0.434009 0.240659 -0.0726919 0.730587 1.23976 -0.0451399 
305 17.678 18.8181 6.15177 0.198259 0.363177 -0.0911913 0.718446 1.10596 -0.940362 
197 11.2924 17.4185 6.14099 0.0110599 0.820216 0.0353526 -0.242461 -1.48616 0.541245 
193 12.713 17.492 6.13345 -0.394083 -0.407663 0.0177048 -0.411922 -0.0123334 -0.181275 
324 19.7941 20.0888 6.10011 0.602781 -0.12543 0.112918 0.337057 1.00994 -1.69942 
137 4.90868 13.5452 6.09765 0 0 0 0 0 0 
132 4.90868 11.0852 6.09765 0 0 0 0 0 0 
125 4.90868 8.62519 6.09765 0 0 0 0 0 0 
50 4.90868 16.0052 6.09765 0 0 0 0 0 0 
126 6.33271 8.702 6.10512 -0.469857 0.09078 -0.0653043 -0.67481 1.07556 0.0826085 
135 8.47038 10.0153 6.11178 -0.854204 -0.00502813 -0.0493026 0.210137 0.645084 -0.922064 
134 7.04163 9.9395 6.0944 0.680124 0.0348155 0.0734483 0.866768 -0.367204 -2.02383 
133 6.33428 11.1546 6.10172 -0.612544 0.132077 -0.0553358 1.11087 0.505035 0.0847142 
332 15.5388 22.4204 6.17498 -0.254534 0.163913 -0.00376247 1.15634 -0.375313 1.79709 
192 10.5729 18.6406 6.15393 0.166117 -0.186939 -0.0756827 -1.61627 0.421331 -0.164778 
209 9.16073 18.5906 6.10949 -0.0143205 -0.129606 0.126372 0.0824997 0.891565 -1.21629 
64 4.90868 18.4652 6.09765 0 0 0 0 0 0 
291 4.90868 23.3852 6.09765 0 0 0 0 0 0 
205 4.90868 20.9252 6.09765 0 0 0 0 0 0 
341 19.0738 23.7206 6.12026 -0.100965 -0.151737 0.148832 -0.887564 1.11388 0.113178 
281 10.5673 21.0734 6.12463 0.139997 0.565859 0.198014 0.987406 -0.774788 0.664832 
283 14.834 18.7565 6.13165 0.107154 0.055304 0.0519968 0.625716 -0.192503 -0.408542 
329 14.8276 23.6451 6.17867 -0.244018 -0.845354 -0.189183 3.07633 1.6848 2.60997 
361 19.7915 24.9319 6.15841 0.0919071 0.289266 -0.170843 0.932762 1.47578 -1.01576 
312 13.4147 21.147 6.19515 -0.102995 -0.124979 -0.0787942 -2.9924 -1.7177 -1.38861 
67 8.44921 17.3648 6.11013 -0.34231 0.226073 -0.0253982 -1.00282 0.91768 2.1183 
342 19.7856 22.5106 6.13439 0.229735 -0.00400307 0.0172777 1.18093 1.33357 0.159113 
310 12.6994 22.3567 6.19503 -0.200433 0.215672 -0.114653 -0.979133 0.609682 0.507419 
287 13.4256 18.7154 6.12245 -0.268273 -0.189585 0.105168 -2.53009 -1.53282 -1.62651 
286 11.2895 19.8664 6.16949 -0.149445 -0.109405 -0.183617 1.66946 0.362446 1.71899 
301 14.8241 21.1953 6.17996 0.127896 0.0133682 -0.0339193 -0.739451 0.204503 0.419692 
282 12.7011 19.9215 6.1647 0.197265 0.116537 0.0132062 1.56253 -0.334878 -0.772947 
238 19.7734 29.8084 6.13262 0.381489 0.00707864 -0.191326 0.509024 -0.53302 0.588388 
350 13.3961 26.0317 6.11812 0.0861335 -0.107718 0.125637 1.31178 -1.54004 -0.246195 
365 15.5248 27.2884 6.13705 -0.106107 0.466061 -0.164091 0.378538 -0.361644 -1.33161 
363 11.2913 29.6645 6.1269 -0.601256 -0.632348 0.027378 -1.72444 0.330351 1.17613 
210 10.5721 30.873 6.12909 0.133985 0.462817 -0.00705293 0.683694 -1.61826 1.90512 
360 9.16186 28.4014 6.10846 -0.104649 -0.675886 0.145758 -0.926338 0.864611 -1.00706 
340 9.15494 25.937 6.1079 0.101565 0.238295 0.0541076 0.779442 -0.538852 -0.357252 
248 19.0482 33.4635 6.11183 0.0741265 0.117851 -0.0145367 -2.38058 -2.22087 -0.22706 
218 14.8073 30.9612 6.09236 0.550405 -0.386039 -0.0750759 1.45534 -0.447601 -2.36494 
253 19.7728 32.252 6.14309 0.0399076 -0.169 -0.161064 1.18435 0.0187741 0.970399 
345 10.5797 28.4243 6.14502 -0.189362 0.642927 -0.134192 0.550467 1.1142 1.01074 
347 14.8074 26.0647 6.14097 0.484579 0.224901 -0.130563 -0.104841 0.368429 0.220354 
327 10.5636 25.9835 6.12692 0.17752 0.0455585 -0.0893194 -0.016462 -0.279312 -1.58873 
222 13.4027 30.9261 6.0997 -0.212507 -0.352984 -0.0071011 -1.88683 1.35306 -0.70188 
366 17.6618 26.1129 6.11637 -0.0165443 0.0681511 0.0118896 0.274724 -1.10046 -1.06711 
374 9.15962 30.8408 6.14084 -0.199901 0.236793 -0.207905 1.31275 -1.78987 -2.32993 
231 14.8097 33.4032 6.13787 0.150464 -0.066488 -0.335262 -0.279933 -0.249728 -0.179481 
211 12.6953 29.6924 6.11241 0.307442 0.297401 0.0879459 0.731153 -1.16392 -2.87455 
346 12.6887 27.2502 6.1329 0.206998 -0.0445617 -0.000317617 -1.39517 0.379259 -0.923533 
216 10.5774 33.3222 6.07555 -0.760696 0.178619 0.0367537 0.461259 -1.88144 -0.499095 
359 8.44211 29.6117 6.10654 0.678116 0.340069 0.0776339 -0.272542 -1.76454 -0.906633 
371 6.32339 33.2479 6.07678 -0.0280279 0.11395 0.0219945 0.391945 -1.66077 -0.749691 
357 6.32978 30.8011 6.10759 -0.187516 -0.11907 -0.0908782 -1.07494 0.0956451 -1.37686 
236 15.518 32.1769 6.08948 0.129314 0.510153 0.159062 -0.0373758 0.898384 1.17249 
217 12.6919 32.1412 6.09964 0.0897867 -0.0333317 0.0836507 -0.304236 -0.512456 -0.445138 
878 15.5241 41.9565 6.1108 -0.423347 0.0932308 -0.1498 0.557889 0.62757 0.266059 
785 16.9427 39.5389 6.09529 -0.424129 -0.423717 0.0218723 1.27045 -0.427013 1.04738 
896 19.7762 41.9864 6.1216 0.0335266 -0.395519 -0.0748212 1.91167 0.968758 0.158498 
875 19.0589 40.7638 6.11923 0.17115 0.485433 -0.136136 -0.423246 0.283743 -0.74654 
251 15.5258 34.6323 6.06886 -0.941717 -0.215169 0.327536 -0.893615 -0.504754 -1.17748 
874 16.9263 41.9792 6.08887 0.704497 -0.172642 0.0528336 -0.120965 -1.06795 0.69107 
383 6.31186 38.169 6.10955 0.68891 0.276085 0.0339045 -0.401882 -0.689247 2.52082 
384 7.02584 36.9483 6.11857 -0.0959141 -0.0884925 -0.10478 -0.598213 -1.13868 -0.454809 
387 7.03174 39.4021 6.11151 -0.177981 0.182581 0.00336716 -0.165692 0.433716 -1.02128 
260 6.31776 40.6357 6.104 0.688632 -0.175844 0.0965028 -1.21674 0.513604 -0.159381 
275 7.03944 41.8677 6.11763 -0.227856 -0.484552 -0.189821 0.498283 -1.45616 1.00257 
276 8.45419 41.8861 6.07392 -0.0709702 -0.240946 0.0575341 2.31893 -1.5368 -1.81493 
274 6.32587 43.0868 6.11034 0.159272 0.288474 0.00427457 0.283924 0.395512 0.0891241 
370 4.90868 33.2252 6.09765 0 0 0 0 0 0 
356 4.90868 30.7652 6.09765 0 0 0 0 0 0 
336 4.90868 28.3052 6.09765 0 0 0 0 0 0 
316 4.90868 25.8452 6.09765 0 0 0 0 0 0 
372 7.03919 32.0288 6.08483 -0.219203 0.176615 0.113168 -0.520979 -0.260956 -0.266896 
235 13.3934 33.3686 6.12211 0.25472 0.162459 -0.117778 1.1155 -0.671211 -0.588951 
338 7.03626 27.122 6.11938 0.0734668 0.0969872 0.00946626 -0.863978 -0.404899 0.890871 
237 17.6506 30.9979 6.11479 0.0957134 0.268266 -0.0234153 -0.455492 1.14185 0.562468 
232 16.9334 32.2081 6.10196 -0.148364 0.215289 -0.0979353 1.47349 -1.30236 -0.217764 
337 6.33276 28.3484 6.10103 -0.456096 -0.154799 0.0220024 0.485862 -0.692775 0.0560132 
220 19.0656 28.5824 6.1064 0.357256 -0.16714 0.0400313 0.0687027 0.521301 -0.863922 
317 6.32041 25.8955 6.13075 0.236333 -0.482068 -0.105003 0.411584 -0.278599 -0.701266 
349 11.2809 27.2069 6.14189 -0.0915991 -0.0182973 -0.0368675 1.86521 0.608901 1.1301 
252 17.6295 33.4406 6.07679 0.367197 -0.0944552 0.18919 1.40453 -1.49435 -0.422558 
219 16.9421 29.7868 6.09069 0.429173 -0.966003 0.0840463 -0.533265 -0.25333 0.0903249 
212 14.8205 28.5207 6.10108 0.153158 -0.339318 0.0958716 0.817018 -0.00489078 -0.905716 
223 15.5424 29.7496 6.06771 -1.14246 -0.246672 0.219039 -1.33429 -1.41054 -0.956264 
364 13.4059 28.4748 6.13815 0.00954626 0.0940029 -0.177236 1.48349 -0.0592033 -0.417358 
213 16.9363 27.3248 6.10617 0.423598 0.17527 0.153164 0.946645 -0.455262 -0.266382 
381 9.15155 33.3045 6.07475 0.389951 -0.106272 0.02953 -0.245254 -0.0596597 1.46199 
214 19.077 26.1463 6.13147 -0.0897976 -0.0176509 -0.086527 0.627133 -2.67597 -0.86246 
225 19.7909 27.3631 6.09795 0.204201 0.457497 0.0081579 -1.76354 -0.0133574 0.49183 
221 11.2844 32.107 6.10141 -0.337524 -0.333972 -0.00102229 -0.420068 -1.77043 2.20047 
233 19.0606 31.0241 6.12617 0.201361 0.174829 0.076597 -1.16598 0.998852 0.576982 
224 17.6546 28.5552 6.11645 -0.433896 0.104756 -0.0821826 2.50041 -0.432893 -1.3398 
339 8.45283 27.1575 6.11512 -0.123117 0.407246 -0.0278964 -0.972168 -1.17337 0.67198 
373 8.45137 32.0718 6.11244 0.0972729 -0.352458 -0.0727671 0.257001 -0.438673 0.133072 
358 7.04109 29.5782 6.1067 -0.582301 0.0172348 -0.0569875 1.35428 0.751668 0.972827 
389 9.15345 38.198 6.10369 0.207564 0.25499 -0.0736443 -0.53597 -1.04678 -0.878533 
277 9.16795 40.6635 6.07641 -0.652764 -0.503986 0.0691023 -0.0248769 -0.0844696 -0.423006 
385 8.43895 36.9797 6.08575 0.0598514 -0.368951 0.0417056 0.0394276 0.357128 0.25282 
229 10.5618 35.7744 6.05143 -0.0189447 -0.294929 -0.0237438 1.3338 -0.326655 -1.44944 
259 4.90868 40.6052 6.09765 0 0 0 0 0 0 
386 9.14653 35.7522 6.03603 -0.0746218 0.115671 0.240306 -0.00074984 0.019975 0.705233 
388 8.45225 39.4274 6.11434 -0.113568 0.224819 -0.149237 1.79463 0.693755 -0.842677 
273 4.90868 43.0652 6.09765 0 0 0 0 0 0 
234 11.2724 34.5502 6.06726 0.0257078 0.370323 -0.0376518 -0.571228 1.39178 1.64455 
382 4.90868 38.1452 6.09765 0 0 0 0 0 0 
377 4.90868 35.6852 6.09765 0 0 0 0 0 0 
262 12.7023 39.4783 6.04726 -0.0820659 -0.306395 -0.0777574 0.404129 1.31276 -1.5622 
244 10.5696 38.214 6.06476 0.190875 0.450109 -0.0167928 -1.24754 -0.68411 -0.530829 
267 13.3971 38.2528 6.04073 0.275867 0.169564 0.113762 -0.12803 -1.40963 0.94661 
783 12.6862 41.9116 6.04618 0.480192 0.427366 -0.0169342 0.90473 0.905155 1.78112 
879 17.6466 40.7602 6.09816 -0.0487466 0.146941 0.0481013 1.32685 1.97482 1.55627 
788 13.4124 40.696 6.04041 -0.301046 0.344789 0.148649 -1.36204 -1.84406 -0.546231 
269 17.6336 35.8878 6.09724 0.993315 -0.631646 -0.101493 0.188403 0.360788 1.17741 
799 9.1574 43.1101 6.06052 0.236236 0.403697 0.0973757 -0.23583 0.0472301 1.64613 
782 10.5749 43.139 6.05463 -0.271428 -0.799989 0.0324921 1.78021 0.120659 -1.11697 
247 16.9238 34.6611 6.09266 0.629552 -0.0473999 -0.0582548 -0.192962 0.885716 1.35571 
246 14.8037 35.8489 6.08411 0.378748 -0.475141 -0.0318526 1.17299 -0.3962 0.319699 