ITEM: TIMESTEP
7300
ITEM: NUMBER OF ATOMS
4798
ITEM: BOX BOUNDS ff ff ff
-10.3577 110.358
-10.0998 131.9
-100.402 112.598
ITEM: ATOMS id x y z fx fy fz vx vy vz 
72 -0.062301 2.4752 6.09765 0 0 0 0 0 0 
110 4.19854 7.39519 6.09765 0 0 0 0 0 0 
109 2.77826 7.39519 6.09765 0 0 0 0 0 0 
93 4.19854 4.9352 6.09765 0 0 0 0 0 0 
92 2.77826 4.9352 6.09765 0 0 0 0 0 0 
91 2.06812 6.16519 6.09765 0 0 0 0 0 0 
87 0.647839 6.16519 6.09765 0 0 0 0 0 0 
86 -0.062301 7.39519 6.09765 0 0 0 0 0 0 
81 4.19854 2.4752 6.09765 0 0 0 0 0 0 
80 2.77826 2.4752 6.09765 0 0 0 0 0 0 
79 2.06812 3.7052 6.09765 0 0 0 0 0 0 
78 0.647839 3.7052 6.09765 0 0 0 0 0 0 
77 -0.062301 4.9352 6.09765 0 0 0 0 0 0 
76 4.19854 0.015197 6.09765 0 0 0 0 0 0 
75 2.77826 0.015197 6.09765 0 0 0 0 0 0 
74 2.06812 1.2452 6.09765 0 0 0 0 0 0 
73 0.647839 1.2452 6.09765 0 0 0 0 0 0 
6 -0.062301 12.3152 6.09765 0 0 0 0 0 0 
131 4.19854 12.3152 6.09765 0 0 0 0 0 0 
130 2.77826 12.3152 6.09765 0 0 0 0 0 0 
124 4.19854 9.85519 6.09765 0 0 0 0 0 0 
123 2.77826 9.85519 6.09765 0 0 0 0 0 0 
122 2.06812 11.0852 6.09765 0 0 0 0 0 0 
117 0.647839 11.0852 6.09765 0 0 0 0 0 0 
108 2.06812 8.62519 6.09765 0 0 0 0 0 0 
100 0.647839 8.62519 6.09765 0 0 0 0 0 0 
99 -0.062301 9.85519 6.09765 0 0 0 0 0 0 
34 4.19854 14.7752 6.09765 0 0 0 0 0 0 
33 2.77826 14.7752 6.09765 0 0 0 0 0 0 
32 2.06812 16.0052 6.09765 0 0 0 0 0 0 
31 0.647839 16.0052 6.09765 0 0 0 0 0 0 
19 2.06812 13.5452 6.09765 0 0 0 0 0 0 
18 0.647839 13.5452 6.09765 0 0 0 0 0 0 
17 -0.062301 14.7752 6.09765 0 0 0 0 0 0 
300 4.19854 24.6152 6.09765 0 0 0 0 0 0 
299 2.77826 24.6152 6.09765 0 0 0 0 0 0 
204 4.19854 22.1552 6.09765 0 0 0 0 0 0 
203 2.77826 22.1552 6.09765 0 0 0 0 0 0 
202 2.06812 23.3852 6.09765 0 0 0 0 0 0 
191 0.647839 23.3852 6.09765 0 0 0 0 0 0 
190 -0.062301 24.6152 6.09765 0 0 0 0 0 0 
71 2.06812 20.9252 6.09765 0 0 0 0 0 0 
70 0.647839 20.9252 6.09765 0 0 0 0 0 0 
69 -0.062301 22.1552 6.09765 0 0 0 0 0 0 
63 4.19854 19.6952 6.09765 0 0 0 0 0 0 
62 2.77826 19.6952 6.09765 0 0 0 0 0 0 
49 4.19854 17.2352 6.09765 0 0 0 0 0 0 
48 2.77826 17.2352 6.09765 0 0 0 0 0 0 
47 2.06812 18.4652 6.09765 0 0 0 0 0 0 
46 0.647839 18.4652 6.09765 0 0 0 0 0 0 
45 -0.062301 19.6952 6.09765 0 0 0 0 0 0 
30 -0.062301 17.2352 6.09765 0 0 0 0 0 0 
355 4.19854 31.9952 6.09765 0 0 0 0 0 0 
354 2.77826 31.9952 6.09765 0 0 0 0 0 0 
353 2.06812 33.2252 6.09765 0 0 0 0 0 0 
344 0.647839 33.2252 6.09765 0 0 0 0 0 0 
335 4.19854 29.5352 6.09765 0 0 0 0 0 0 
334 2.77826 29.5352 6.09765 0 0 0 0 0 0 
333 2.06812 30.7652 6.09765 0 0 0 0 0 0 
326 0.647839 30.7652 6.09765 0 0 0 0 0 0 
325 -0.062301 31.9952 6.09765 0 0 0 0 0 0 
315 4.19854 27.0752 6.09765 0 0 0 0 0 0 
314 2.77826 27.0752 6.09765 0 0 0 0 0 0 
313 2.06812 28.3052 6.09765 0 0 0 0 0 0 
308 0.647839 28.3052 6.09765 0 0 0 0 0 0 
307 -0.062301 29.5352 6.09765 0 0 0 0 0 0 
298 2.06812 25.8452 6.09765 0 0 0 0 0 0 
297 0.647839 25.8452 6.09765 0 0 0 0 0 0 
296 -0.062301 27.0752 6.09765 0 0 0 0 0 0 
215 -0.062301 36.9152 6.09765 0 0 0 0 0 0 
376 4.19854 36.9152 6.09765 0 0 0 0 0 0 
375 2.77826 36.9152 6.09765 0 0 0 0 0 0 
369 4.19854 34.4552 6.09765 0 0 0 0 0 0 
368 2.77826 34.4552 6.09765 0 0 0 0 0 0 
367 2.06812 35.6852 6.09765 0 0 0 0 0 0 
362 0.647839 35.6852 6.09765 0 0 0 0 0 0 
343 -0.062301 34.4552 6.09765 0 0 0 0 0 0 
258 4.19854 41.8352 6.09765 0 0 0 0 0 0 
257 2.77826 41.8352 6.09765 0 0 0 0 0 0 
256 2.06812 43.0652 6.09765 0 0 0 0 0 0 
255 0.647839 43.0652 6.09765 0 0 0 0 0 0 
243 4.19854 39.3752 6.09765 0 0 0 0 0 0 
242 2.77826 39.3752 6.09765 0 0 0 0 0 0 
241 2.06812 40.6052 6.09765 0 0 0 0 0 0 
240 0.647839 40.6052 6.09765 0 0 0 0 0 0 
239 -0.062301 41.8352 6.09765 0 0 0 0 0 0 
228 2.06812 38.1452 6.09765 0 0 0 0 0 0 
227 0.647839 38.1452 6.09765 0 0 0 0 0 0 
226 -0.062301 39.3752 6.09765 0 0 0 0 0 0 
254 -0.062301 44.2952 6.09765 0 0 0 0 0 0 
905 4.19854 51.6752 6.09765 0 0 0 0 0 0 
904 2.77826 51.6752 6.09765 0 0 0 0 0 0 
890 4.19854 49.2152 6.09765 0 0 0 0 0 0 
889 2.77826 49.2152 6.09765 0 0 0 0 0 0 
888 2.06812 50.4452 6.09765 0 0 0 0 0 0 
887 0.647839 50.4452 6.09765 0 0 0 0 0 0 
886 -0.062301 51.6752 6.09765 0 0 0 0 0 0 
794 4.19854 46.7552 6.09765 0 0 0 0 0 0 
793 2.77826 46.7552 6.09765 0 0 0 0 0 0 
792 2.06812 47.9852 6.09765 0 0 0 0 0 0 
781 0.647839 47.9852 6.09765 0 0 0 0 0 0 
780 -0.062301 49.2152 6.09765 0 0 0 0 0 0 
280 2.06812 45.5252 6.09765 0 0 0 0 0 0 
279 0.647839 45.5252 6.09765 0 0 0 0 0 0 
278 -0.062301 46.7552 6.09765 0 0 0 0 0 0 
272 4.19854 44.2952 6.09765 0 0 0 0 0 0 
271 2.77826 44.2952 6.09765 0 0 0 0 0 0 
959 4.19854 59.0552 6.09765 0 0 0 0 0 0 
958 2.77826 59.0552 6.09765 0 0 0 0 0 0 
957 2.06812 60.2852 6.09765 0 0 0 0 0 0 
952 0.647839 60.2852 6.09765 0 0 0 0 0 0 
945 4.19854 56.5952 6.09765 0 0 0 0 0 0 
944 2.77826 56.5952 6.09765 0 0 0 0 0 0 
943 2.06812 57.8252 6.09765 0 0 0 0 0 0 
934 0.647839 57.8252 6.09765 0 0 0 0 0 0 
933 -0.062301 59.0552 6.09765 0 0 0 0 0 0 
925 4.19854 54.1352 6.09765 0 0 0 0 0 0 
924 2.77826 54.1352 6.09765 0 0 0 0 0 0 
923 2.06812 55.3652 6.09765 0 0 0 0 0 0 
916 0.647839 55.3652 6.09765 0 0 0 0 0 0 
915 -0.062301 56.5952 6.09765 0 0 0 0 0 0 
903 2.06812 52.9052 6.09765 0 0 0 0 0 0 
898 0.647839 52.9052 6.09765 0 0 0 0 0 0 
897 -0.062301 54.1352 6.09765 0 0 0 0 0 0 
805 -0.062301 61.5152 6.09765 0 0 0 0 0 0 
966 4.19854 61.5152 6.09765 0 0 0 0 0 0 
965 2.77826 61.5152 6.09765 0 0 0 0 0 0 
862 4.19854 68.8952 6.09765 0 0 0 0 0 0 
861 2.77826 68.8952 6.09765 0 0 0 0 0 0 
848 4.19854 66.4352 6.09765 0 0 0 0 0 0 
847 2.77826 66.4352 6.09765 0 0 0 0 0 0 
846 2.06812 67.6652 6.09765 0 0 0 0 0 0 
845 0.647839 67.6652 6.09765 0 0 0 0 0 0 
844 -0.062301 68.8952 6.09765 0 0 0 0 0 0 
833 4.19854 63.9752 6.09765 0 0 0 0 0 0 
832 2.77826 63.9752 6.09765 0 0 0 0 0 0 
831 2.06812 65.2052 6.09765 0 0 0 0 0 0 
830 0.647839 65.2052 6.09765 0 0 0 0 0 0 
829 -0.062301 66.4352 6.09765 0 0 0 0 0 0 
818 2.06812 62.7452 6.09765 0 0 0 0 0 0 
817 0.647839 62.7452 6.09765 0 0 0 0 0 0 
816 -0.062301 63.9752 6.09765 0 0 0 0 0 0 
1828 4.19854 76.2752 6.09765 0 0 0 0 0 0 
1827 2.77826 76.2752 6.09765 0 0 0 0 0 0 
1826 2.06812 77.5052 6.09765 0 0 0 0 0 0 
1821 0.647839 77.5052 6.09765 0 0 0 0 0 0 
1813 4.19854 73.8152 6.09765 0 0 0 0 0 0 
1812 2.77826 73.8152 6.09765 0 0 0 0 0 0 
1811 2.06812 75.0452 6.09765 0 0 0 0 0 0 
1810 0.647839 75.0452 6.09765 0 0 0 0 0 0 
1809 -0.062301 76.2752 6.09765 0 0 0 0 0 0 
1717 4.19854 71.3552 6.09765 0 0 0 0 0 0 
1716 2.77826 71.3552 6.09765 0 0 0 0 0 0 
1715 2.06812 72.5852 6.09765 0 0 0 0 0 0 
1704 0.647839 72.5852 6.09765 0 0 0 0 0 0 
1703 -0.062301 73.8152 6.09765 0 0 0 0 0 0 
870 2.06812 70.1252 6.09765 0 0 0 0 0 0 
869 0.647839 70.1252 6.09765 0 0 0 0 0 0 
868 -0.062301 71.3552 6.09765 0 0 0 0 0 0 
1728 -0.062301 86.1152 6.09765 0 0 0 0 0 0 
1889 4.19854 86.1152 6.09765 0 0 0 0 0 0 
1888 2.77826 86.1152 6.09765 0 0 0 0 0 0 
1882 4.19854 83.6552 6.09765 0 0 0 0 0 0 
1881 2.77826 83.6552 6.09765 0 0 0 0 0 0 
1880 2.06812 84.8852 6.09765 0 0 0 0 0 0 
1875 0.647839 84.8852 6.09765 0 0 0 0 0 0 
1868 4.19854 81.1952 6.09765 0 0 0 0 0 0 
1867 2.77826 81.1952 6.09765 0 0 0 0 0 0 
1866 2.06812 82.4252 6.09765 0 0 0 0 0 0 
1857 0.647839 82.4252 6.09765 0 0 0 0 0 0 
1856 -0.062301 83.6552 6.09765 0 0 0 0 0 0 
1848 4.19854 78.7352 6.09765 0 0 0 0 0 0 
1847 2.77826 78.7352 6.09765 0 0 0 0 0 0 
1846 2.06812 79.9652 6.09765 0 0 0 0 0 0 
1839 0.647839 79.9652 6.09765 0 0 0 0 0 0 
1838 -0.062301 81.1952 6.09765 0 0 0 0 0 0 
1820 -0.062301 78.7352 6.09765 0 0 0 0 0 0 
1741 2.06812 87.3452 6.09765 0 0 0 0 0 0 
1740 0.647839 87.3452 6.09765 0 0 0 0 0 0 
2677 4.19854 95.9552 6.09765 0 0 0 0 0 0 
2676 2.77826 95.9552 6.09765 0 0 0 0 0 0 
1793 2.06812 94.7252 6.09765 0 0 0 0 0 0 
1792 0.647839 94.7252 6.09765 0 0 0 0 0 0 
1791 -0.062301 95.9552 6.09765 0 0 0 0 0 0 
1785 4.19854 93.4952 6.09765 0 0 0 0 0 0 
1784 2.77826 93.4952 6.09765 0 0 0 0 0 0 
1771 4.19854 91.0352 6.09765 0 0 0 0 0 0 
1770 2.77826 91.0352 6.09765 0 0 0 0 0 0 
1769 2.06812 92.2652 6.09765 0 0 0 0 0 0 
1768 0.647839 92.2652 6.09765 0 0 0 0 0 0 
1767 -0.062301 93.4952 6.09765 0 0 0 0 0 0 
1756 4.19854 88.5752 6.09765 0 0 0 0 0 0 
1755 2.77826 88.5752 6.09765 0 0 0 0 0 0 
1754 2.06812 89.8052 6.09765 0 0 0 0 0 0 
1753 0.647839 89.8052 6.09765 0 0 0 0 0 0 
1752 -0.062301 91.0352 6.09765 0 0 0 0 0 0 
1739 -0.062301 88.5752 6.09765 0 0 0 0 0 0 
2663 -0.062301 98.4152 6.09765 0 0 0 0 0 0 
2808 4.19854 103.335 6.09765 0 0 0 0 0 0 
2807 2.77826 103.335 6.09765 0 0 0 0 0 0 
2806 2.06812 104.565 6.09765 0 0 0 0 0 0 
2799 0.647839 104.565 6.09765 0 0 0 0 0 0 
2788 4.19854 100.875 6.09765 0 0 0 0 0 0 
2787 2.77826 100.875 6.09765 0 0 0 0 0 0 
2786 2.06812 102.105 6.09765 0 0 0 0 0 0 
2781 0.647839 102.105 6.09765 0 0 0 0 0 0 
2780 -0.062301 103.335 6.09765 0 0 0 0 0 0 
2773 4.19854 98.4152 6.09765 0 0 0 0 0 0 
2772 2.77826 98.4152 6.09765 0 0 0 0 0 0 
2771 2.06812 99.6452 6.09765 0 0 0 0 0 0 
2770 0.647839 99.6452 6.09765 0 0 0 0 0 0 
2769 -0.062301 100.875 6.09765 0 0 0 0 0 0 
2675 2.06812 97.1852 6.09765 0 0 0 0 0 0 
2664 0.647839 97.1852 6.09765 0 0 0 0 0 0 
2849 4.19854 110.715 6.09765 0 0 0 0 0 0 
2848 2.77826 110.715 6.09765 0 0 0 0 0 0 
2842 4.19854 108.255 6.09765 0 0 0 0 0 0 
2841 2.77826 108.255 6.09765 0 0 0 0 0 0 
2840 2.06812 109.485 6.09765 0 0 0 0 0 0 
2835 0.647839 109.485 6.09765 0 0 0 0 0 0 
2828 4.19854 105.795 6.09765 0 0 0 0 0 0 
2827 2.77826 105.795 6.09765 0 0 0 0 0 0 
2826 2.06812 107.025 6.09765 0 0 0 0 0 0 
2817 0.647839 107.025 6.09765 0 0 0 0 0 0 
2816 -0.062301 108.255 6.09765 0 0 0 0 0 0 
2798 -0.062301 105.795 6.09765 0 0 0 0 0 0 
2716 4.19854 113.175 6.09765 0 0 0 0 0 0 
2715 2.77826 113.175 6.09765 0 0 0 0 0 0 
2701 2.06812 111.945 6.09765 0 0 0 0 0 0 
2700 0.647839 111.945 6.09765 0 0 0 0 0 0 
2699 -0.062301 113.175 6.09765 0 0 0 0 0 0 
2688 -0.062301 110.715 6.09765 0 0 0 0 0 0 
2712 -0.062301 115.635 6.09765 0 0 0 0 0 0 
3636 4.19854 120.555 6.09765 0 0 0 0 0 0 
3635 2.77826 120.555 6.09765 0 0 0 0 0 0 
3634 2.06812 121.785 6.09765 0 0 0 0 0 0 
3623 0.647839 121.785 6.09765 0 0 0 0 0 0 
2753 2.06812 119.325 6.09765 0 0 0 0 0 0 
2752 0.647839 119.325 6.09765 0 0 0 0 0 0 
2751 -0.062301 120.555 6.09765 0 0 0 0 0 0 
2745 4.19854 118.095 6.09765 0 0 0 0 0 0 
2744 2.77826 118.095 6.09765 0 0 0 0 0 0 
2731 4.19854 115.635 6.09765 0 0 0 0 0 0 
2730 2.77826 115.635 6.09765 0 0 0 0 0 0 
2729 2.06812 116.865 6.09765 0 0 0 0 0 0 
2728 0.647839 116.865 6.09765 0 0 0 0 0 0 
2727 -0.062301 118.095 6.09765 0 0 0 0 0 0 
2714 2.06812 114.405 6.09765 0 0 0 0 0 0 
2713 0.647839 114.405 6.09765 0 0 0 0 0 0 
129 9.20431 6.36725 6.10954 -0.449818 0.156644 -0.129401 0.176922 -0.54842 -1.7562 
1 10.622 6.46462 6.08874 0.0130957 -0.200399 0.0364947 -1.98981 -0.368371 -1.38634 
95 6.33718 3.80639 6.08365 -0.262509 -0.365478 0.0463461 -2.209 1.92762 -1.01036 
114 8.48038 5.1277 6.09424 0.295655 0.60127 0.0259927 -1.81117 1.9048 0.329373 
94 4.90868 3.7052 6.09765 0 0 0 0 0 0 
111 4.90868 6.16519 6.09765 0 0 0 0 0 0 
82 4.90868 1.2452 6.09765 0 0 0 0 0 0 
89 12.8905 0.547427 6.1953 0.115315 -0.274589 -0.105417 0.762901 -1.55177 0.259118 
5 19.2336 1.94171 6.38143 0.746203 -0.106506 -0.145675 -0.227467 0.0555173 -0.688657 
84 7.19707 0.217512 6.24055 0.00060076 0.177663 -0.0870192 0.126307 0.314414 2.14503 
83 6.34494 1.34968 6.12058 0.071727 0.121418 0.142445 -0.440125 1.3389 0.764626 
28 17.7726 6.70936 6.15733 0.319754 0.450431 0.0081826 -0.935868 -0.581228 -0.446788 
112 6.32743 6.24177 6.09681 0.260475 0.199186 -0.0689835 -0.133978 1.10639 -0.0867393 
128 8.46661 7.5752 6.10619 0.0642669 -0.335377 0.0206634 -0.211847 -1.76286 0.91762 
127 7.04687 7.48652 6.0904 -0.173575 0.109258 -0.052702 -0.0255324 1.97673 0.798824 
90 11.5265 0.464439 6.23571 -0.300185 0.0199864 -0.0649983 -1.32086 -0.526121 0.874321 
96 7.07233 2.60274 6.08443 0.281905 -0.0594636 0.0559688 -0.827805 -0.404607 1.76874 
113 7.06179 5.03181 6.08328 -0.0943712 0.376791 0.064919 0.367969 1.29808 -1.56895 
104 17.1485 0.743527 6.85719 -0.602027 0.157376 0.00494806 1.64394 0.0492965 -1.55809 
97 8.52206 2.70549 6.10915 0.179873 -0.101175 0.0406763 -2.24857 -0.644138 -0.91772 
98 9.31182 1.52374 6.19924 -0.431375 -0.0776914 -0.0267754 0.30384 -1.53763 -1.03599 
107 15.779 0.680595 6.68716 0.352251 -0.230233 0.115399 0.164901 1.47621 -0.12423 
3 14.9385 4.21364 6.19321 -0.0144351 0.217118 -0.0776986 0.544366 1.38096 -0.126076 
15 17.8057 4.302 6.21269 -0.556875 0.0948135 -0.0275784 -1.64452 1.71233 -0.192644 
13 13.4927 6.56834 6.14183 -0.509396 -0.271931 -0.248992 -1.29434 -0.362841 0.394804 
14 15.6451 5.43635 6.16406 0.294476 -0.330114 -0.0164656 0.137396 0.298125 0.163467 
11 19.2123 4.35826 6.19332 0.0339352 0.0530227 0.116563 0.00340069 -1.98974 1.38853 
119 13.5209 4.15065 6.13564 0.0520727 0.15205 0.165791 -1.48121 0.0461184 -0.889507 
121 17.8598 1.9159 6.53954 0.0246917 -0.4218 -0.089008 1.25724 -1.08928 1.20596 
24 19.1846 6.77257 6.17805 -0.220496 -0.448644 0.00118717 -1.14286 0.201203 -1.11684 
85 8.57252 0.319033 6.33144 -0.0156531 0.332372 -0.048983 0.511073 2.2478 -0.504381 
4 17.1034 3.07496 6.31431 -0.0133125 0.687425 0.188572 -1.80048 2.61457 -0.939944 
2 12.7738 5.34129 6.085 0.393834 0.179523 0.101077 -1.55612 -0.144432 -1.33559 
10 17.0667 5.50317 6.17395 -0.378408 -0.78864 0.0066152 0.3036 -0.718724 -1.93633 
106 13.6025 1.75012 6.27109 -0.0497319 0.0878883 0.177165 -1.25046 0.735685 0.605706 
101 10.6568 4.04084 6.11109 -0.0922314 -0.474006 0.0110842 -0.495114 1.86905 1.48903 
9 14.9052 6.62006 6.1423 0.099831 0.797591 -0.00081146 0.569854 -0.066657 -1.32931 
115 9.2332 3.94357 6.08465 -0.0873586 -0.385335 0.128552 1.07677 1.3501 -0.977356 
118 11.3581 5.26414 6.05544 0.212908 0.268579 0.231528 -0.0329472 -0.187187 -0.806016 
103 14.9823 1.80468 6.41841 0.291976 0.34034 -0.00696528 0.959957 -0.975331 -1.7517 
88 10.7089 1.61141 6.17713 0.156008 0.100713 0.219144 1.64498 2.11153 0.155016 
120 15.6818 3.03012 6.29534 0.0683812 -0.17695 -0.0118998 -1.20111 0.594689 0.947707 
102 12.8253 2.92844 6.22134 0.662596 -0.0185445 -0.193182 -0.113982 -1.18012 0.324393 
105 11.4157 2.84838 6.20088 -0.905741 0.21947 -0.278599 1.08751 -3.37322 0.935746 
352 17.6462 23.6904 6.02782 0.359502 -0.395694 0.107008 1.15918 1.134 -1.5289 
65 6.31407 18.5087 6.06379 0.373404 -0.00118409 0.118316 0.596355 0.996215 0.0913484 
207 7.02509 19.7378 6.07794 -0.0348608 0.62853 0.17753 1.11966 1.27066 -0.448898 
206 6.33088 20.9717 6.12772 -0.606962 -0.48681 -0.197469 -1.26544 -0.00771269 0.82009 
27 15.6159 7.85174 6.14839 0.410989 -0.0663354 -0.076603 -0.535874 0.682307 0.558412 
329 14.8077 23.625 6.07854 0.293908 0.616623 0.126975 1.14998 -2.64884 -0.31354 
137 4.90868 13.5452 6.09765 0 0 0 0 0 0 
132 4.90868 11.0852 6.09765 0 0 0 0 0 0 
125 4.90868 8.62519 6.09765 0 0 0 0 0 0 
50 4.90868 16.0052 6.09765 0 0 0 0 0 0 
126 6.31766 8.70492 6.06338 0.303038 -0.467982 0.175343 1.58733 0.463768 -0.049059 
135 8.45184 10.0143 6.07381 0.00162797 -0.0526448 0.00272841 -2.50128 0.0796765 -1.03266 
134 7.02499 9.93965 6.07742 0.801963 0.0868237 -0.0473098 -1.59787 0.783188 -0.687533 
133 6.32138 11.1587 6.0862 -0.166134 -0.0916082 -0.0460788 0.15665 -0.323485 -0.41009 
332 15.5223 22.4126 6.10493 0.00120037 0.264058 -0.124512 1.06643 1.86132 0.475666 
192 10.5666 18.6358 6.10801 -0.261125 -0.0230283 -0.000801039 -0.892077 -0.747469 0.142268 
209 9.14804 18.5845 6.10834 -0.00726324 -0.314415 -0.0755717 1.64939 1.2356 -0.59698 
64 4.90868 18.4652 6.09765 0 0 0 0 0 0 
291 4.90868 23.3852 6.09765 0 0 0 0 0 0 
205 4.90868 20.9252 6.09765 0 0 0 0 0 0 
341 19.0648 23.7173 6.01009 -0.148791 0.370693 0.150951 -0.135403 -0.0324711 -0.682203 
281 10.5628 21.0789 6.13028 0.0438529 0.107756 0.128482 -0.813107 -1.33925 -2.5514 
283 14.8325 18.7564 6.13349 -0.902342 0.124699 -0.0359799 -2.71674 1.47186 -0.671848 
282 12.6885 19.9154 6.14877 0.0717188 -0.229475 -0.0768629 0.216996 -0.166288 -0.158085 
361 19.7733 24.9456 6.04093 0.2369 0.154358 0.0686166 0.140597 0.250231 -1.0398 
312 13.3973 21.1409 6.14865 0.286018 -0.0871949 -0.105804 -1.28327 -0.725807 -0.261079 
67 8.43661 17.3413 6.06798 0.349045 0.361382 0.148774 -1.33355 -1.40923 -0.593001 
342 19.7881 22.5114 6.03941 0.198671 0.114325 0.0369609 1.04774 -1.08173 2.19149 
310 12.691 22.3506 6.14228 -0.280432 0.65627 0.0476688 -0.274917 -1.92347 0.275144 
287 13.4059 18.6957 6.14324 0.152006 0.205367 -0.0656921 -0.442814 -0.561654 -0.382357 
286 11.276 19.8666 6.12653 0.0580462 -0.185161 0.0363184 0.609856 -1.57568 2.13185 
301 14.8078 21.197 6.09781 0.213754 -0.594903 0.111138 -0.763877 -0.0347232 -0.666994 
51 6.31637 16.0546 6.04233 0.267055 0.018594 0.121857 -0.701304 -0.499483 -2.09396 
290 19.8223 15.2437 6.14726 -0.339356 -0.219296 0.0236269 0.77104 -0.738287 -0.915089 
324 19.7966 20.0992 6.17353 0.143184 -0.774942 -0.187142 -1.5773 -0.455724 0.613111 
193 12.6871 17.4641 6.10625 0.396489 0.474041 0.155544 2.03075 -0.508546 1.35691 
197 11.2738 17.418 6.08683 0.260461 0.0307998 0.148251 -1.29204 -1.04973 1.1603 
305 17.6729 18.8269 6.16904 0.128751 0.0758152 0.0317569 -2.79242 0.126756 0.408538 
322 19.0746 21.2918 6.09777 -0.135043 0.523079 -0.0113944 0.393355 -0.447081 -0.39153 
144 9.16841 13.6868 6.08136 -0.222558 0.109116 -0.116474 -0.575486 0.165452 0.776702 
302 16.9487 20.0334 6.11804 0.0714933 0.2215 -0.0626461 -1.19878 1.18517 1.57847 
323 17.6594 21.2643 6.08553 -0.00198984 -0.528973 0.126191 0.933333 1.53954 1.3925 
321 16.9326 22.4669 6.08883 0.186062 0.139115 -0.142529 -0.839722 0.76124 -0.917411 
306 19.8074 17.6527 6.18378 0.319755 0.644644 -0.206147 -0.542416 0.330304 0.493476 
284 16.9557 17.6116 6.18524 0.423063 -0.510824 -0.0300442 0.415423 -0.00576028 -0.77983 
288 15.5493 17.5565 6.16665 -0.130767 -0.325179 -0.0863091 3.66264 -0.379849 0.142493 
303 19.0907 18.8668 6.18503 -0.135553 0.202161 -0.0332468 0.712041 -1.06859 1.85399 
311 11.2753 22.3069 6.16049 -0.0986886 0.243319 -0.143059 -0.247122 -0.568989 -1.19148 
328 12.6788 24.7989 6.12538 0.069217 0.323969 -0.0647495 0.784562 -0.0257428 2.13931 
304 15.5315 19.9797 6.10176 0.133398 0.501473 0.119433 0.619393 -0.359244 -0.826631 
309 10.559 23.5285 6.14269 -0.147717 0.00626411 0.0218953 1.69469 0.166792 1.05371 
320 9.13727 23.4906 6.14017 0.516684 -0.242194 0.0501927 -2.45903 -0.95111 -0.197591 
319 8.42628 24.7034 6.11186 0.577895 0.49505 -0.0269155 -1.23197 -0.290404 0.452732 
295 9.15168 21.0295 6.15328 -0.186456 0.179866 -0.201025 -1.05588 0.929712 -0.538718 
351 15.5278 24.8621 6.05931 -0.295487 -0.377356 0.000465599 0.218999 -0.590641 1.60268 
348 16.9425 24.9016 6.03732 -0.32813 0.180759 0.0499767 -0.437436 0.334185 0.109843 
208 8.43206 19.8024 6.1102 0.413801 -0.327417 0.0148652 0.770131 0.0108633 -0.0191022 
294 8.44416 22.2546 6.14484 -0.0184175 -0.257223 0.0205041 -0.214557 -3.26514 1.70596 
140 8.44427 12.4658 6.04059 0.317787 -0.53167 0.204823 0.979508 1.16524 1.40551 
331 13.3977 23.5926 6.11913 -0.235886 -0.659244 0.0361734 0.854831 -2.10006 -2.21702 
35 10.5753 13.7486 6.09008 0.305486 0.276282 -0.00631785 -1.59017 0.321472 1.30237 
66 7.02751 17.2888 6.06955 -0.308323 0.0495135 -0.14986 -0.82651 0.92106 0.124233 
293 7.03438 22.2022 6.12452 -0.205499 0.267785 -0.0316506 -0.968961 -0.0131155 0.708092 
40 11.3034 12.55 6.087 0.157884 -0.217009 0.112939 0.513098 -0.109769 0.443949 
318 7.02192 24.6575 6.0993 -0.202427 0.129183 -0.0508768 -0.694417 1.30365 1.1567 
330 11.2668 24.7604 6.13277 -0.0156464 0.0210602 -0.118337 -0.366953 0.0959981 1.53644 
292 6.31775 23.4241 6.07675 0.258816 -0.107186 0.256427 0.00703931 -1.78278 1.01286 
143 8.45477 14.8998 6.07595 -0.59955 -0.277439 -0.0263511 -0.342765 0.203452 -0.200133 
142 7.0333 14.8369 6.04466 0.135028 -0.0296832 0.213996 0.738216 0.60972 0.316425 
139 7.03066 12.3958 6.06041 0.257991 -0.430929 0.0967795 -0.665536 -1.10447 0.139489 
25 11.3232 10.108 6.13481 -0.396747 0.801836 0.0371548 1.01845 0.938195 -1.15102 
196 19.1033 14.0198 6.18673 0.674652 0.0284137 -0.145492 0.950564 1.68147 -1.76023 
136 9.18636 8.80355 6.11053 -0.21942 0.312406 0.0599648 0.346048 2.92938 1.25228 
12 11.3374 7.6921 6.11468 -0.104461 -0.206822 0.0865101 -0.20304 0.0997903 -0.54565 
7 10.604 8.89035 6.14892 -0.148133 -0.201348 -0.164245 0.837049 0.163256 -0.804275 
36 12.7193 12.6178 6.12345 -0.0357307 -0.372704 -0.114306 -0.153785 2.35653 -2.06781 
198 13.4249 16.2664 6.13849 -0.546671 0.0421086 -0.268771 0.571237 1.10525 -0.694691 
60 17.7209 11.5446 6.19454 -0.66406 0.518602 -0.0931803 -1.50944 -0.806059 2.48481 
8 12.7518 7.76693 6.13386 0.504822 0.174255 -0.0343689 -1.39452 -2.45897 1.43891 
52 10.5702 16.1899 6.10941 -0.313789 -0.162739 -0.0924735 0.739833 -0.553134 0.555425 
38 17.0071 10.3338 6.19473 0.258758 -0.609419 0.0374087 0.847184 1.21733 -0.432973 
194 14.8293 16.3359 6.14903 0.496164 -0.282396 -0.0249911 -1.44103 2.14516 -2.07392 
138 6.31979 13.601 6.08336 -0.0155705 0.481785 -0.101489 1.10341 0.484537 1.38416 
20 10.5887 11.3252 6.09739 0.351466 -0.641907 -0.0719478 -1.24602 -0.575738 -0.792261 
141 9.17537 11.2485 6.05468 -0.468971 0.12745 0.0620121 -1.01437 -2.32132 0.413025 
59 15.5723 12.697 6.17537 0.0147511 -0.211727 -0.102585 0.0149499 -0.390581 -0.204578 
55 16.9775 12.7478 6.1802 0.842521 0.125887 0.0694612 -2.1597 2.68635 -2.70617 
200 17.6943 13.9776 6.19611 -0.255933 -0.709508 0.057119 0.0762366 1.70155 -0.442922 
54 14.8489 13.8966 6.14715 -0.296716 0.126254 -0.169809 0.133177 0.661954 0.152911 
37 14.8726 11.4714 6.16696 -0.497103 0.405928 0.122179 -1.09661 -0.964753 0.991533 
21 12.7342 10.1886 6.16504 0.368979 0.321854 -0.131652 -0.36965 0.144817 -1.97949 
199 15.5555 15.1242 6.13356 -0.116623 0.0987085 0.328909 -0.725261 -0.355684 0.394522 
41 13.4556 11.416 6.16351 -0.385196 -0.174786 -0.0868674 -1.32189 -1.10005 -0.0527551 
58 13.4329 13.8313 6.08616 0.221927 0.510509 0.170717 -0.614883 -0.113332 0.0728162 
289 17.683 16.3985 6.19528 -0.55967 -0.0218499 0.0871976 2.12308 -1.31923 -0.761861 
53 12.7125 15.044 6.08109 -0.320848 -0.289827 0.244864 0.0680233 0.890282 1.83329 
195 16.9651 15.1711 6.23135 0.143869 0.658459 -0.372031 -0.405482 -0.284508 -1.18626 
22 14.8889 9.05973 6.14759 -0.0934526 -0.39955 0.0995407 0.806477 1.3443 0.831354 
26 13.474 8.99777 6.13869 -0.342128 -0.576001 0.0539172 0.550234 -0.0235072 0.309947 
285 19.0901 16.4471 6.17414 0.356688 -0.378112 0.108159 -0.139574 1.34298 0.750551 
42 15.5948 10.2786 6.19886 0.337076 -0.291831 -0.152499 0.91625 -0.838067 -2.25785 
56 19.1228 11.602 6.1608 0.674311 -0.309301 0.122981 2.78702 -0.0831662 -0.674647 
68 9.15126 16.1259 6.10061 0.475795 0.390154 -0.0696848 -0.060593 -0.944689 -1.16058 
43 17.7465 9.12684 6.1841 -0.360822 0.491619 -0.0243186 -0.819279 0.402349 0.901046 
39 19.1549 9.18694 6.19728 0.115507 -0.311378 -0.0243043 2.49653 -0.882573 -1.88568 
23 17.048 7.90764 6.1372 -0.930907 -0.0009612 0.149758 1.35968 2.56154 0.589277 
57 11.2893 14.9765 6.11599 0.328785 0.178831 -0.206812 -0.341809 -0.0276379 -0.203198 
873 14.8176 43.1656 6.12023 -0.726438 0.295237 0.101509 0.102945 -2.51323 -0.714928 
274 6.31968 43.087 6.08751 -0.0734382 0.0418979 -0.00428353 -0.65596 0.44707 -0.723997 
276 8.44511 41.884 6.07159 -0.424293 -0.32477 0.00110476 0.68771 -1.82764 -1.37072 
363 11.2756 29.6592 6.10054 -0.153224 -0.410759 0.0142801 0.561448 -0.50459 -0.891196 
210 10.5848 30.8822 6.10901 -0.771737 -0.0192017 0.0217448 0.686443 0.617264 -1.65346 
360 9.14524 28.3823 6.11951 -0.255368 0.881679 -0.0571245 0.602145 -0.0674675 0.225053 
340 9.14473 25.9434 6.09044 0.0203162 -0.589515 0.0545853 0.238973 -0.102647 -1.99592 
248 19.063 33.4591 6.1206 0.0926662 0.424201 -0.0404178 -0.113281 0.0475667 0.186993 
218 14.8015 30.952 6.09403 0.336895 -0.255854 -0.0787849 -1.28483 -1.65653 -1.53674 
253 19.7828 32.2461 6.12227 0.06835 0.122205 0.0895048 1.27126 -1.42239 -1.79578 
345 10.5539 28.425 6.11342 0.153931 0.729579 -0.0538282 -0.683061 -0.727733 -2.18623 
275 7.02187 41.8626 6.11771 0.53691 0.255739 -0.201343 -0.498317 0.205185 0.0290022 
327 10.5604 25.9822 6.07746 0.0359307 0.0848229 0.177975 -1.64896 2.98733 0.159043 
222 13.3979 30.9145 6.08744 -0.463911 0.512768 0.00242741 -3.35114 -0.155812 1.49635 
260 6.31245 40.6456 6.1091 0.390035 -0.865005 0.00636672 -1.07022 -0.277912 -0.980742 
374 9.1654 30.8438 6.12607 -0.199329 -0.0955593 -0.187736 0.532337 -1.15115 -0.623769 
874 16.9477 41.9757 6.12112 -0.91136 -0.402098 0.0763969 -0.68803 2.17171 -0.81297 
211 12.6843 29.6942 6.0819 0.0241299 0.142693 0.105746 0.407021 4.03104 1.54535 
785 16.945 39.5282 6.1486 -0.632936 0.198955 -0.126022 0.353774 -0.586905 1.06519 
216 10.5549 33.3267 6.08152 0.309206 0.296548 -0.0386661 0.638207 2.04327 0.191788 
359 8.43726 29.6221 6.10881 0.47006 -0.674541 0.156768 0.656058 0.753066 0.746609 
371 6.31591 33.2488 6.10007 0.50476 0.467074 0.0384795 2.54077 -0.997868 1.41088 
878 15.5146 41.9402 6.13129 0.773905 -0.000481695 -0.0665196 1.31108 -0.657647 0.57809 
338 7.02651 27.1099 6.10572 0.0459636 0.755548 0.0455271 0.724976 -1.4128 -1.40164 
337 6.31962 28.3442 6.11115 0.207106 -0.352958 0.0106114 0.45997 -0.181703 -0.211154 
349 11.2656 27.2206 6.09307 -0.0615378 -0.620231 0.0304031 -0.173369 -0.0594483 -1.64389 
270 19.7859 34.689 6.12497 -0.317895 -0.0336441 -0.00720065 -0.440271 1.65103 1.20871 
789 15.5213 39.4991 6.15766 0.172606 -0.557432 -0.318539 1.21736 0.845491 -0.172668 
252 17.6413 33.4341 6.11017 0.361085 -0.0141674 -0.144655 0.293654 -0.243698 1.63792 
381 9.13803 33.293 6.08316 0.144931 -0.0460293 0.00439971 1.01451 -1.30005 -0.512073 
221 11.2806 32.114 6.08786 -0.252098 -0.0876714 -0.0130089 1.55654 -0.398853 2.21948 
339 8.44124 27.1586 6.11389 -0.387773 -0.069896 -0.0990743 0.770529 1.16037 0.496746 
791 19.7876 37.136 6.12661 -0.2307 -0.602199 0.0358736 -1.49069 0.14139 1.29743 
373 8.44094 32.0543 6.07975 0.333981 0.389162 0.185638 -0.866402 0.252511 2.53068 
784 14.8129 40.7071 6.11609 -0.271368 0.708009 0.085212 -2.48799 -1.86749 -0.550726 
790 17.6524 38.3155 6.11744 0.0606965 -0.404496 0.155337 -1.07502 -1.30198 -0.124875 
358 7.02506 29.576 6.12045 -0.15075 0.37986 -0.00340486 -1.68016 2.06744 0.19224 
277 9.14496 40.6504 6.04227 0.0136451 0.227842 0.220076 1.48156 0.392989 -0.102709 
385 8.43373 36.9662 6.06476 -0.070871 0.103427 0.236758 0.0696781 1.36621 -2.08928 
380 8.43282 34.5177 6.07934 0.0634609 -0.0478805 0.0848237 -0.961011 0.764343 1.3612 
386 9.1431 35.7453 6.09548 0.286474 0.0537666 -0.20877 -0.600675 0.245243 0.494325 
269 17.6445 35.8762 6.11549 0.111714 0.364682 0.0563469 -0.822619 -0.49291 0.303284 
799 9.14152 43.1153 6.05047 0.0826789 -0.107819 0.100443 0.836417 1.51574 -1.0226 
782 10.5563 43.1322 6.07366 0.0737688 -0.190749 -0.090913 -0.259084 -0.387129 1.51912 
370 4.90868 33.2252 6.09765 0 0 0 0 0 0 
356 4.90868 30.7652 6.09765 0 0 0 0 0 0 
336 4.90868 28.3052 6.09765 0 0 0 0 0 0 
316 4.90868 25.8452 6.09765 0 0 0 0 0 0 
372 7.03254 32.0287 6.09868 -0.450304 -0.0666206 0.0316163 -3.32493 0.0833444 1.79588 
235 13.3874 33.3648 6.04977 0.381194 0.282779 0.105854 -1.65197 -0.984338 -0.562248 
877 13.3876 43.1505 6.13742 0.4329 -0.00144465 -0.182744 1.30658 0.411291 -0.0553488 
237 17.6406 31.0046 6.09862 0.102272 -0.397073 0.165467 -0.370745 -0.639492 -0.318583 
232 16.9257 32.2115 6.07597 -0.00216109 0.238114 0.112515 -0.179702 0.242892 0.659638 
880 19.7786 39.5529 6.12003 0.115341 0.68348 -0.0297969 0.462171 -0.12121 -0.0247812 
220 19.0458 28.5862 6.14428 0.299835 0.512168 -0.0964718 3.49553 1.35428 -2.47621 
317 6.32362 25.8843 6.08807 -0.314332 -0.287339 0.124093 1.61934 -0.449423 1.08152 
263 14.7903 38.2746 6.07573 0.674443 0.413253 0.446859 2.8632 -0.790374 -0.60334 
265 19.0642 35.914 6.13349 0.243404 -0.249747 -0.111714 -0.947861 -1.79678 1.96585 
219 16.9256 29.7807 6.12937 0.12204 -0.293475 -0.220912 -0.850756 -1.32724 2.31298 
212 14.803 28.517 6.09743 -0.0214118 -0.112837 0.0167633 -0.73545 -2.57732 -1.03536 
223 15.5135 29.7321 6.10588 0.0907892 0.528635 0.0522348 1.13476 0.56026 -2.22895 
364 13.3958 28.4849 6.09246 -0.190351 -0.350847 0.00734704 -0.0889916 -0.226099 -0.80364 
213 16.9243 27.3404 6.03877 0.198577 -0.213856 0.356497 -0.244033 -0.694724 -3.51963 
264 16.9189 37.0958 6.1338 0.591489 -0.0674202 -0.136812 0.775646 2.42215 0.11639 
214 19.0573 26.1676 6.05492 0.211561 -0.506226 0.000117878 -0.275702 0.0882835 -1.17639 
225 19.771 27.3839 6.08083 0.175588 -0.070259 0.122635 0.658553 -0.244465 2.28276 
268 15.5061 37.0573 6.11308 0.176733 0.428522 -0.186017 -1.44999 0.126272 1.71144 
233 19.0533 31.037 6.15795 0.207371 -0.522594 -0.13633 -1.09873 1.30527 -0.370645 
224 17.6329 28.5576 6.09988 0.250641 0.38322 0.0996407 1.19991 4.13326 1.81676 
786 19.0728 38.3436 6.10784 -0.513016 -0.296922 0.120858 2.38668 -2.96108 -1.76663 
378 6.31003 35.7161 6.10499 0.524212 -0.0876876 -0.00848015 -1.10394 0.178912 -0.404267 
379 7.01865 34.4939 6.1111 -0.105542 -0.388601 -0.110464 0.176122 -0.920752 -0.647879 
389 9.13518 38.2007 6.09573 -0.086473 0.104659 -0.164697 0.311278 -1.73268 1.10771 
787 11.2583 41.9031 6.08748 0.265074 -0.0372309 0.0659488 -1.40483 -1.57369 0.996157 
249 11.2647 37.0176 6.0926 -0.191179 -0.233133 -0.0337553 -2.07691 1.51784 0.789989 
229 10.5649 35.7831 6.06608 -0.235277 -0.205569 0.0705344 -0.498595 0.395505 1.78485 
259 4.90868 40.6052 6.09765 0 0 0 0 0 0 
250 13.3878 35.8171 6.09445 0.175499 -0.232305 -0.0899886 -0.989876 -2.18243 0.477313 
388 8.43067 39.4287 6.08 0.226364 -0.0714777 -0.0617626 0.0210016 -0.719836 -0.859499 
273 4.90868 43.0652 6.09765 0 0 0 0 0 0 
234 11.2797 34.5576 6.05947 -0.692761 -0.047784 0.0907366 2.02349 -0.75171 1.67991 
382 4.90868 38.1452 6.09765 0 0 0 0 0 0 
377 4.90868 35.6852 6.09765 0 0 0 0 0 0 
262 12.6764 39.4783 6.092 0.153008 0.178546 0.0350678 -1.08645 -0.070494 2.75396 
244 10.5459 38.2355 6.07765 0.43674 -0.172214 0.117493 -0.956589 1.2611 -1.10141 
267 13.381 38.267 6.11315 0.102333 -0.568907 -0.144277 -1.54507 -2.18228 -0.17305 
783 12.6777 41.9187 6.13356 0.114292 0.0637549 -0.172203 0.0588552 -0.249885 0.779711 