ITEM: TIMESTEP
7100
ITEM: NUMBER OF ATOMS
4798
ITEM: BOX BOUNDS ff ff ff
-10.3577 110.358
-10.0998 131.9
-100.402 112.598
ITEM: ATOMS id x y z fx fy fz vx vy vz 
72 -0.062301 2.4752 6.09765 0 0 0 0 0 0 
110 4.19854 7.39519 6.09765 0 0 0 0 0 0 
109 2.77826 7.39519 6.09765 0 0 0 0 0 0 
93 4.19854 4.9352 6.09765 0 0 0 0 0 0 
92 2.77826 4.9352 6.09765 0 0 0 0 0 0 
91 2.06812 6.16519 6.09765 0 0 0 0 0 0 
87 0.647839 6.16519 6.09765 0 0 0 0 0 0 
86 -0.062301 7.39519 6.09765 0 0 0 0 0 0 
81 4.19854 2.4752 6.09765 0 0 0 0 0 0 
80 2.77826 2.4752 6.09765 0 0 0 0 0 0 
79 2.06812 3.7052 6.09765 0 0 0 0 0 0 
78 0.647839 3.7052 6.09765 0 0 0 0 0 0 
77 -0.062301 4.9352 6.09765 0 0 0 0 0 0 
76 4.19854 0.015197 6.09765 0 0 0 0 0 0 
75 2.77826 0.015197 6.09765 0 0 0 0 0 0 
74 2.06812 1.2452 6.09765 0 0 0 0 0 0 
73 0.647839 1.2452 6.09765 0 0 0 0 0 0 
6 -0.062301 12.3152 6.09765 0 0 0 0 0 0 
131 4.19854 12.3152 6.09765 0 0 0 0 0 0 
130 2.77826 12.3152 6.09765 0 0 0 0 0 0 
124 4.19854 9.85519 6.09765 0 0 0 0 0 0 
123 2.77826 9.85519 6.09765 0 0 0 0 0 0 
122 2.06812 11.0852 6.09765 0 0 0 0 0 0 
117 0.647839 11.0852 6.09765 0 0 0 0 0 0 
108 2.06812 8.62519 6.09765 0 0 0 0 0 0 
100 0.647839 8.62519 6.09765 0 0 0 0 0 0 
99 -0.062301 9.85519 6.09765 0 0 0 0 0 0 
34 4.19854 14.7752 6.09765 0 0 0 0 0 0 
33 2.77826 14.7752 6.09765 0 0 0 0 0 0 
32 2.06812 16.0052 6.09765 0 0 0 0 0 0 
31 0.647839 16.0052 6.09765 0 0 0 0 0 0 
19 2.06812 13.5452 6.09765 0 0 0 0 0 0 
18 0.647839 13.5452 6.09765 0 0 0 0 0 0 
17 -0.062301 14.7752 6.09765 0 0 0 0 0 0 
300 4.19854 24.6152 6.09765 0 0 0 0 0 0 
299 2.77826 24.6152 6.09765 0 0 0 0 0 0 
204 4.19854 22.1552 6.09765 0 0 0 0 0 0 
203 2.77826 22.1552 6.09765 0 0 0 0 0 0 
202 2.06812 23.3852 6.09765 0 0 0 0 0 0 
191 0.647839 23.3852 6.09765 0 0 0 0 0 0 
190 -0.062301 24.6152 6.09765 0 0 0 0 0 0 
71 2.06812 20.9252 6.09765 0 0 0 0 0 0 
70 0.647839 20.9252 6.09765 0 0 0 0 0 0 
69 -0.062301 22.1552 6.09765 0 0 0 0 0 0 
63 4.19854 19.6952 6.09765 0 0 0 0 0 0 
62 2.77826 19.6952 6.09765 0 0 0 0 0 0 
49 4.19854 17.2352 6.09765 0 0 0 0 0 0 
48 2.77826 17.2352 6.09765 0 0 0 0 0 0 
47 2.06812 18.4652 6.09765 0 0 0 0 0 0 
46 0.647839 18.4652 6.09765 0 0 0 0 0 0 
45 -0.062301 19.6952 6.09765 0 0 0 0 0 0 
30 -0.062301 17.2352 6.09765 0 0 0 0 0 0 
355 4.19854 31.9952 6.09765 0 0 0 0 0 0 
354 2.77826 31.9952 6.09765 0 0 0 0 0 0 
353 2.06812 33.2252 6.09765 0 0 0 0 0 0 
344 0.647839 33.2252 6.09765 0 0 0 0 0 0 
335 4.19854 29.5352 6.09765 0 0 0 0 0 0 
334 2.77826 29.5352 6.09765 0 0 0 0 0 0 
333 2.06812 30.7652 6.09765 0 0 0 0 0 0 
326 0.647839 30.7652 6.09765 0 0 0 0 0 0 
325 -0.062301 31.9952 6.09765 0 0 0 0 0 0 
315 4.19854 27.0752 6.09765 0 0 0 0 0 0 
314 2.77826 27.0752 6.09765 0 0 0 0 0 0 
313 2.06812 28.3052 6.09765 0 0 0 0 0 0 
308 0.647839 28.3052 6.09765 0 0 0 0 0 0 
307 -0.062301 29.5352 6.09765 0 0 0 0 0 0 
298 2.06812 25.8452 6.09765 0 0 0 0 0 0 
297 0.647839 25.8452 6.09765 0 0 0 0 0 0 
296 -0.062301 27.0752 6.09765 0 0 0 0 0 0 
215 -0.062301 36.9152 6.09765 0 0 0 0 0 0 
376 4.19854 36.9152 6.09765 0 0 0 0 0 0 
375 2.77826 36.9152 6.09765 0 0 0 0 0 0 
369 4.19854 34.4552 6.09765 0 0 0 0 0 0 
368 2.77826 34.4552 6.09765 0 0 0 0 0 0 
367 2.06812 35.6852 6.09765 0 0 0 0 0 0 
362 0.647839 35.6852 6.09765 0 0 0 0 0 0 
343 -0.062301 34.4552 6.09765 0 0 0 0 0 0 
258 4.19854 41.8352 6.09765 0 0 0 0 0 0 
257 2.77826 41.8352 6.09765 0 0 0 0 0 0 
256 2.06812 43.0652 6.09765 0 0 0 0 0 0 
255 0.647839 43.0652 6.09765 0 0 0 0 0 0 
243 4.19854 39.3752 6.09765 0 0 0 0 0 0 
242 2.77826 39.3752 6.09765 0 0 0 0 0 0 
241 2.06812 40.6052 6.09765 0 0 0 0 0 0 
240 0.647839 40.6052 6.09765 0 0 0 0 0 0 
239 -0.062301 41.8352 6.09765 0 0 0 0 0 0 
228 2.06812 38.1452 6.09765 0 0 0 0 0 0 
227 0.647839 38.1452 6.09765 0 0 0 0 0 0 
226 -0.062301 39.3752 6.09765 0 0 0 0 0 0 
254 -0.062301 44.2952 6.09765 0 0 0 0 0 0 
905 4.19854 51.6752 6.09765 0 0 0 0 0 0 
904 2.77826 51.6752 6.09765 0 0 0 0 0 0 
890 4.19854 49.2152 6.09765 0 0 0 0 0 0 
889 2.77826 49.2152 6.09765 0 0 0 0 0 0 
888 2.06812 50.4452 6.09765 0 0 0 0 0 0 
887 0.647839 50.4452 6.09765 0 0 0 0 0 0 
886 -0.062301 51.6752 6.09765 0 0 0 0 0 0 
794 4.19854 46.7552 6.09765 0 0 0 0 0 0 
793 2.77826 46.7552 6.09765 0 0 0 0 0 0 
792 2.06812 47.9852 6.09765 0 0 0 0 0 0 
781 0.647839 47.9852 6.09765 0 0 0 0 0 0 
780 -0.062301 49.2152 6.09765 0 0 0 0 0 0 
280 2.06812 45.5252 6.09765 0 0 0 0 0 0 
279 0.647839 45.5252 6.09765 0 0 0 0 0 0 
278 -0.062301 46.7552 6.09765 0 0 0 0 0 0 
272 4.19854 44.2952 6.09765 0 0 0 0 0 0 
271 2.77826 44.2952 6.09765 0 0 0 0 0 0 
959 4.19854 59.0552 6.09765 0 0 0 0 0 0 
958 2.77826 59.0552 6.09765 0 0 0 0 0 0 
957 2.06812 60.2852 6.09765 0 0 0 0 0 0 
952 0.647839 60.2852 6.09765 0 0 0 0 0 0 
945 4.19854 56.5952 6.09765 0 0 0 0 0 0 
944 2.77826 56.5952 6.09765 0 0 0 0 0 0 
943 2.06812 57.8252 6.09765 0 0 0 0 0 0 
934 0.647839 57.8252 6.09765 0 0 0 0 0 0 
933 -0.062301 59.0552 6.09765 0 0 0 0 0 0 
925 4.19854 54.1352 6.09765 0 0 0 0 0 0 
924 2.77826 54.1352 6.09765 0 0 0 0 0 0 
923 2.06812 55.3652 6.09765 0 0 0 0 0 0 
916 0.647839 55.3652 6.09765 0 0 0 0 0 0 
915 -0.062301 56.5952 6.09765 0 0 0 0 0 0 
903 2.06812 52.9052 6.09765 0 0 0 0 0 0 
898 0.647839 52.9052 6.09765 0 0 0 0 0 0 
897 -0.062301 54.1352 6.09765 0 0 0 0 0 0 
805 -0.062301 61.5152 6.09765 0 0 0 0 0 0 
966 4.19854 61.5152 6.09765 0 0 0 0 0 0 
965 2.77826 61.5152 6.09765 0 0 0 0 0 0 
862 4.19854 68.8952 6.09765 0 0 0 0 0 0 
861 2.77826 68.8952 6.09765 0 0 0 0 0 0 
848 4.19854 66.4352 6.09765 0 0 0 0 0 0 
847 2.77826 66.4352 6.09765 0 0 0 0 0 0 
846 2.06812 67.6652 6.09765 0 0 0 0 0 0 
845 0.647839 67.6652 6.09765 0 0 0 0 0 0 
844 -0.062301 68.8952 6.09765 0 0 0 0 0 0 
833 4.19854 63.9752 6.09765 0 0 0 0 0 0 
832 2.77826 63.9752 6.09765 0 0 0 0 0 0 
831 2.06812 65.2052 6.09765 0 0 0 0 0 0 
830 0.647839 65.2052 6.09765 0 0 0 0 0 0 
829 -0.062301 66.4352 6.09765 0 0 0 0 0 0 
818 2.06812 62.7452 6.09765 0 0 0 0 0 0 
817 0.647839 62.7452 6.09765 0 0 0 0 0 0 
816 -0.062301 63.9752 6.09765 0 0 0 0 0 0 
1828 4.19854 76.2752 6.09765 0 0 0 0 0 0 
1827 2.77826 76.2752 6.09765 0 0 0 0 0 0 
1826 2.06812 77.5052 6.09765 0 0 0 0 0 0 
1821 0.647839 77.5052 6.09765 0 0 0 0 0 0 
1813 4.19854 73.8152 6.09765 0 0 0 0 0 0 
1812 2.77826 73.8152 6.09765 0 0 0 0 0 0 
1811 2.06812 75.0452 6.09765 0 0 0 0 0 0 
1810 0.647839 75.0452 6.09765 0 0 0 0 0 0 
1809 -0.062301 76.2752 6.09765 0 0 0 0 0 0 
1717 4.19854 71.3552 6.09765 0 0 0 0 0 0 
1716 2.77826 71.3552 6.09765 0 0 0 0 0 0 
1715 2.06812 72.5852 6.09765 0 0 0 0 0 0 
1704 0.647839 72.5852 6.09765 0 0 0 0 0 0 
1703 -0.062301 73.8152 6.09765 0 0 0 0 0 0 
870 2.06812 70.1252 6.09765 0 0 0 0 0 0 
869 0.647839 70.1252 6.09765 0 0 0 0 0 0 
868 -0.062301 71.3552 6.09765 0 0 0 0 0 0 
1728 -0.062301 86.1152 6.09765 0 0 0 0 0 0 
1889 4.19854 86.1152 6.09765 0 0 0 0 0 0 
1888 2.77826 86.1152 6.09765 0 0 0 0 0 0 
1882 4.19854 83.6552 6.09765 0 0 0 0 0 0 
1881 2.77826 83.6552 6.09765 0 0 0 0 0 0 
1880 2.06812 84.8852 6.09765 0 0 0 0 0 0 
1875 0.647839 84.8852 6.09765 0 0 0 0 0 0 
1868 4.19854 81.1952 6.09765 0 0 0 0 0 0 
1867 2.77826 81.1952 6.09765 0 0 0 0 0 0 
1866 2.06812 82.4252 6.09765 0 0 0 0 0 0 
1857 0.647839 82.4252 6.09765 0 0 0 0 0 0 
1856 -0.062301 83.6552 6.09765 0 0 0 0 0 0 
1848 4.19854 78.7352 6.09765 0 0 0 0 0 0 
1847 2.77826 78.7352 6.09765 0 0 0 0 0 0 
1846 2.06812 79.9652 6.09765 0 0 0 0 0 0 
1839 0.647839 79.9652 6.09765 0 0 0 0 0 0 
1838 -0.062301 81.1952 6.09765 0 0 0 0 0 0 
1820 -0.062301 78.7352 6.09765 0 0 0 0 0 0 
1741 2.06812 87.3452 6.09765 0 0 0 0 0 0 
1740 0.647839 87.3452 6.09765 0 0 0 0 0 0 
2677 4.19854 95.9552 6.09765 0 0 0 0 0 0 
2676 2.77826 95.9552 6.09765 0 0 0 0 0 0 
1793 2.06812 94.7252 6.09765 0 0 0 0 0 0 
1792 0.647839 94.7252 6.09765 0 0 0 0 0 0 
1791 -0.062301 95.9552 6.09765 0 0 0 0 0 0 
1785 4.19854 93.4952 6.09765 0 0 0 0 0 0 
1784 2.77826 93.4952 6.09765 0 0 0 0 0 0 
1771 4.19854 91.0352 6.09765 0 0 0 0 0 0 
1770 2.77826 91.0352 6.09765 0 0 0 0 0 0 
1769 2.06812 92.2652 6.09765 0 0 0 0 0 0 
1768 0.647839 92.2652 6.09765 0 0 0 0 0 0 
1767 -0.062301 93.4952 6.09765 0 0 0 0 0 0 
1756 4.19854 88.5752 6.09765 0 0 0 0 0 0 
1755 2.77826 88.5752 6.09765 0 0 0 0 0 0 
1754 2.06812 89.8052 6.09765 0 0 0 0 0 0 
1753 0.647839 89.8052 6.09765 0 0 0 0 0 0 
1752 -0.062301 91.0352 6.09765 0 0 0 0 0 0 
1739 -0.062301 88.5752 6.09765 0 0 0 0 0 0 
2663 -0.062301 98.4152 6.09765 0 0 0 0 0 0 
2808 4.19854 103.335 6.09765 0 0 0 0 0 0 
2807 2.77826 103.335 6.09765 0 0 0 0 0 0 
2806 2.06812 104.565 6.09765 0 0 0 0 0 0 
2799 0.647839 104.565 6.09765 0 0 0 0 0 0 
2788 4.19854 100.875 6.09765 0 0 0 0 0 0 
2787 2.77826 100.875 6.09765 0 0 0 0 0 0 
2786 2.06812 102.105 6.09765 0 0 0 0 0 0 
2781 0.647839 102.105 6.09765 0 0 0 0 0 0 
2780 -0.062301 103.335 6.09765 0 0 0 0 0 0 
2773 4.19854 98.4152 6.09765 0 0 0 0 0 0 
2772 2.77826 98.4152 6.09765 0 0 0 0 0 0 
2771 2.06812 99.6452 6.09765 0 0 0 0 0 0 
2770 0.647839 99.6452 6.09765 0 0 0 0 0 0 
2769 -0.062301 100.875 6.09765 0 0 0 0 0 0 
2675 2.06812 97.1852 6.09765 0 0 0 0 0 0 
2664 0.647839 97.1852 6.09765 0 0 0 0 0 0 
2849 4.19854 110.715 6.09765 0 0 0 0 0 0 
2848 2.77826 110.715 6.09765 0 0 0 0 0 0 
2842 4.19854 108.255 6.09765 0 0 0 0 0 0 
2841 2.77826 108.255 6.09765 0 0 0 0 0 0 
2840 2.06812 109.485 6.09765 0 0 0 0 0 0 
2835 0.647839 109.485 6.09765 0 0 0 0 0 0 
2828 4.19854 105.795 6.09765 0 0 0 0 0 0 
2827 2.77826 105.795 6.09765 0 0 0 0 0 0 
2826 2.06812 107.025 6.09765 0 0 0 0 0 0 
2817 0.647839 107.025 6.09765 0 0 0 0 0 0 
2816 -0.062301 108.255 6.09765 0 0 0 0 0 0 
2798 -0.062301 105.795 6.09765 0 0 0 0 0 0 
2716 4.19854 113.175 6.09765 0 0 0 0 0 0 
2715 2.77826 113.175 6.09765 0 0 0 0 0 0 
2701 2.06812 111.945 6.09765 0 0 0 0 0 0 
2700 0.647839 111.945 6.09765 0 0 0 0 0 0 
2699 -0.062301 113.175 6.09765 0 0 0 0 0 0 
2688 -0.062301 110.715 6.09765 0 0 0 0 0 0 
2712 -0.062301 115.635 6.09765 0 0 0 0 0 0 
3636 4.19854 120.555 6.09765 0 0 0 0 0 0 
3635 2.77826 120.555 6.09765 0 0 0 0 0 0 
3634 2.06812 121.785 6.09765 0 0 0 0 0 0 
3623 0.647839 121.785 6.09765 0 0 0 0 0 0 
2753 2.06812 119.325 6.09765 0 0 0 0 0 0 
2752 0.647839 119.325 6.09765 0 0 0 0 0 0 
2751 -0.062301 120.555 6.09765 0 0 0 0 0 0 
2745 4.19854 118.095 6.09765 0 0 0 0 0 0 
2744 2.77826 118.095 6.09765 0 0 0 0 0 0 
2731 4.19854 115.635 6.09765 0 0 0 0 0 0 
2730 2.77826 115.635 6.09765 0 0 0 0 0 0 
2729 2.06812 116.865 6.09765 0 0 0 0 0 0 
2728 0.647839 116.865 6.09765 0 0 0 0 0 0 
2727 -0.062301 118.095 6.09765 0 0 0 0 0 0 
2714 2.06812 114.405 6.09765 0 0 0 0 0 0 
2713 0.647839 114.405 6.09765 0 0 0 0 0 0 
129 9.22209 6.38443 6.17401 -0.242302 -0.374532 -0.109189 -0.7228 -0.928543 -1.3977 
1 10.6414 6.46722 6.16397 0.12294 -0.037875 0.137428 0.586396 -0.79434 0.228471 
95 6.34358 3.81993 6.12444 -0.198202 -0.365488 -0.0323418 0.134102 1.33321 0.928082 
114 8.49878 5.1541 6.17148 -0.178107 -0.0678331 0.0232184 -0.00354328 0.822327 0.748659 
94 4.90868 3.7052 6.09765 0 0 0 0 0 0 
111 4.90868 6.16519 6.09765 0 0 0 0 0 0 
82 4.90868 1.2452 6.09765 0 0 0 0 0 0 
89 12.896 0.56582 6.0096 0.363432 0.342661 0.0685571 0.986217 0.475281 -2.31547 
5 19.2903 1.95744 6.39811 -0.254978 -0.539525 -0.294143 -0.103501 1.75183 -0.080178 
84 7.22045 0.234927 6.137 -0.271027 0.27439 0.0360483 1.26389 0.864858 -2.19078 
83 6.35405 1.36786 6.11996 0.0540337 -0.266136 -0.0159135 -1.75065 0.154219 1.16263 
28 17.7718 6.71997 6.2477 0.845944 0.205662 0.0294628 1.78098 -0.553682 1.09573 
112 6.33721 6.26013 6.1113 -0.350069 -0.142063 0.0631474 -2.40189 0.2275 -0.390805 
128 8.48186 7.57647 6.1432 -0.0824593 0.590852 -0.0304321 -0.0354896 -0.671986 -0.747082 
127 7.05453 7.49499 6.11172 0.559515 -0.412546 0.0119259 -0.813058 0.972886 1.40577 
90 11.5339 0.47754 6.17005 0.0893337 -0.00991528 -0.023828 -0.804045 0.380836 2.23604 
96 7.08748 2.61691 6.1298 0.060837 0.184417 0.16211 -0.758066 -0.0547651 0.780179 
113 7.06532 5.05344 6.14798 0.499638 0.0621982 -0.0704002 -0.346754 -2.10303 -0.283429 
104 17.1689 0.732988 6.82411 0.0559547 0.175661 -0.0180408 0.396797 0.123646 0.464317 
97 8.53727 2.72784 6.16289 0.0906456 0.0106308 -0.104648 1.38432 1.25309 0.0588665 
98 9.3278 1.5479 6.13312 -0.389558 -0.0357984 -0.215457 -1.90722 2.51607 -0.310978 
107 15.8102 0.679251 6.63376 -0.146669 -0.057857 -0.0620703 -0.221485 -0.950271 1.59888 
3 14.9708 4.2272 6.28338 -0.128236 0.00975608 -0.110566 -1.30159 -0.335198 2.11273 
15 17.831 4.3134 6.32743 -0.638113 0.0518515 0.0820401 0.00928702 -1.91752 -2.08286 
13 13.5037 6.57613 6.23606 0.403606 0.0245108 -0.108401 -0.867902 0.133922 -3.08962 
14 15.6759 5.44904 6.25365 -0.487866 -0.198809 0.099558 -2.27215 0.462459 0.710106 
11 19.2332 4.3632 6.30604 0.467982 0.218161 -0.00128484 -1.36252 0.658445 -0.512319 
119 13.5481 4.17053 6.24154 0.54219 -0.170071 0.177985 -1.49088 0.377731 0.904801 
121 17.8995 1.90492 6.54111 0.216517 0.099314 0.0383868 0.508214 2.01964 -0.330443 
24 19.1956 6.77741 6.24196 -0.206804 -0.477636 0.138985 0.718341 -2.17067 -0.390704 
85 8.58554 0.356228 5.98457 0.0903513 -0.0264509 0.0739831 0.33325 -0.0252704 2.62932 
4 17.1351 3.08951 6.41981 0.141673 0.106235 -0.191675 1.66537 0.489444 0.0642259 
2 12.811 5.35492 6.25972 -0.792186 -0.0806078 -0.101862 -2.02199 1.98333 0.198509 
10 17.0804 5.50555 6.30674 0.234476 -0.471035 -0.253071 -0.571663 -2.13159 -1.51643 
106 13.626 1.76274 6.22859 -0.110131 -0.321315 -0.0399817 1.03939 -1.49678 -1.73727 
101 10.6702 4.05063 6.20755 0.195743 -0.448351 0.134633 -0.626876 2.79262 -0.278643 
9 14.9219 6.63199 6.23093 0.186038 0.710096 0.0233238 0.852674 -0.893837 -3.32328 
115 9.24798 3.96039 6.19182 -0.168431 0.00664767 -0.032514 0.57739 -1.64327 -0.313363 
118 11.3861 5.2697 6.23253 0.00961722 0.35469 -0.142211 0.161947 0.328599 1.77866 
103 15.0157 1.81821 6.40112 -0.363652 -0.383766 -0.0421346 -0.967521 -0.570168 -0.337377 
88 10.7239 1.62997 6.13933 -0.0287732 -0.103402 0.234748 1.26543 0.210062 0.120164 
120 15.7141 3.03537 6.33381 0.215982 0.399155 0.116902 1.85021 -0.48989 -0.738971 
102 12.8496 2.94956 6.23604 0.428763 -0.361486 -0.0808287 -0.680319 -1.11921 1.90579 
105 11.4293 2.85419 6.21928 -0.438687 0.602617 -0.0739868 0.779169 -1.6648 0.165374 
352 17.6522 23.6764 6.13524 0.398688 0.561291 0.101827 0.531979 -0.995056 -0.174496 
65 6.31764 18.5208 6.08896 0.151118 -0.612356 0.0543628 -2.35052 0.304352 -2.25363 
207 7.02011 19.7449 6.06498 0.397432 0.238707 0.0333675 -1.43769 1.41764 -0.217611 
206 6.31996 20.9677 6.08499 -0.356083 -0.254651 -0.122099 -0.158236 -0.342856 0.906306 
27 15.6277 7.87131 6.21131 -0.129167 -0.866722 -0.0427999 -0.437864 0.9396 -0.425005 
329 14.8034 23.6245 6.14338 0.0644668 -0.179954 0.0593423 0.0167962 -0.79478 0.211653 
137 4.90868 13.5452 6.09765 0 0 0 0 0 0 
132 4.90868 11.0852 6.09765 0 0 0 0 0 0 
125 4.90868 8.62519 6.09765 0 0 0 0 0 0 
50 4.90868 16.0052 6.09765 0 0 0 0 0 0 
126 6.33616 8.69634 6.10223 -0.501565 0.556816 -0.0242487 -1.66768 0.799181 -0.0416897 
135 8.47697 10.0165 6.12662 -0.426179 0.188597 0.00782971 0.242968 0.938414 -1.02646 
134 7.0536 9.93658 6.09931 0.0283603 0.0899592 0.0420767 1.2873 0.416217 -0.620163 
133 6.32661 11.1527 6.1099 0.0108536 -0.267701 0.0429521 0.394515 -1.42101 -0.318205 
332 15.5214 22.4185 6.12055 0.165957 -0.225835 -0.108711 -0.521824 -1.17839 3.00324 
192 10.5571 18.6456 6.11195 0.424725 -0.832247 -0.158163 -0.0735589 -1.02656 -2.02952 
209 9.14924 18.5709 6.08831 0.16909 0.688534 -0.032896 -1.56168 0.0353507 -2.07069 
64 4.90868 18.4652 6.09765 0 0 0 0 0 0 
291 4.90868 23.3852 6.09765 0 0 0 0 0 0 
205 4.90868 20.9252 6.09765 0 0 0 0 0 0 
341 19.0725 23.7258 6.12876 -0.64 -0.0320041 0.0588564 -0.124346 0.926003 0.844543 
281 10.5613 21.068 6.09334 -0.366653 0.422297 -0.0209611 -0.111188 -1.39046 -0.727155 
283 14.8358 18.756 6.04164 -0.869993 0.250021 -0.0305573 -0.370948 1.00525 -0.590328 
282 12.6876 19.9162 6.09336 0.0945089 0.00228231 -0.175973 -0.495236 0.25779 -1.91991 
361 19.7823 24.943 6.14196 0.156485 0.198744 0.0800355 0.679509 -0.519095 -0.221845 
312 13.3908 21.1463 6.09225 0.521067 -0.557324 -0.0443552 0.0314086 -2.4856 -0.954507 
67 8.44541 17.3532 6.10178 0.169523 -0.478181 0.111261 -0.241883 -1.22481 -1.79979 
342 19.7801 22.5168 6.13509 0.550223 0.132197 0.00622845 0.835131 -0.0227268 1.74895 
310 12.6755 22.3452 6.11431 0.0654914 0.703831 0.055337 1.745 0.0971497 -0.221641 
287 13.4056 18.7052 6.05302 0.483533 -0.0764854 0.0573564 -0.396431 0.726548 -0.0180675 
286 11.2786 19.865 6.08415 -0.120153 -0.244534 0.136241 -0.929893 -0.337265 -0.557633 
301 14.8093 21.1957 6.05941 -0.065023 -0.241868 0.147602 -0.0378984 -0.858302 -0.062616 
51 6.316 16.0594 6.10289 0.525969 0.289672 0.0400877 -2.18506 1.06446 0.176716 
290 19.8334 15.2398 6.15216 0.0626727 0.154743 0.00541345 0.0797399 -1.13727 0.839579 
324 19.793 20.1051 6.11191 0.365106 -0.546064 0.0986639 -1.58872 0.601191 -1.27641 
193 12.6923 17.4755 6.06053 0.116682 0.519513 0.15311 1.30569 0.00350737 2.5699 
197 11.2745 17.4206 6.09849 0.300698 0.396223 0.0711238 -0.0300025 0.430253 1.81395 
305 17.6857 18.836 6.09614 -0.477258 -0.381026 -0.0485823 -0.634589 -0.267219 -0.830261 
322 19.0655 21.3037 6.1218 0.37452 0.049168 -0.13373 0.648636 0.683234 -2.16979 
144 9.17267 13.6956 6.20509 -0.841719 -0.131118 -0.180855 1.5958 0.218148 -0.363178 
302 16.9524 20.038 6.08017 -0.101786 -0.07431 -0.0992858 -0.058743 -1.58162 0.136457 
323 17.6628 21.2596 6.08028 -0.522001 -0.0121221 0.137322 -0.864114 1.02585 -1.36185 
321 16.9375 22.4659 6.11329 -0.173069 -0.275238 -0.0367244 0.43421 1.45882 0.242174 
306 19.8243 17.6622 6.17546 -0.225796 0.357812 -0.374065 0.40856 1.88298 0.0746835 
284 16.973 17.6069 6.06818 0.339006 -0.00472233 0.0580305 -0.531035 2.78402 -0.282082 
288 15.5617 17.5606 6.05592 -0.0703731 -0.560102 -0.00373079 1.30317 -0.438203 0.491325 
303 19.0943 18.8718 6.11672 0.258592 0.0880138 0.070144 1.02166 -1.39106 -2.61075 
311 11.2612 22.3015 6.12259 0.42326 -0.305718 -0.0717838 -1.49615 -1.15414 1.86362 
328 12.6838 24.7832 6.11039 -0.178598 0.377025 0.0923953 -1.31215 -1.14317 -0.415466 
304 15.5338 19.982 6.03968 0.210219 0.369768 0.133755 -0.0555227 0.687129 -0.222022 
309 10.5649 23.515 6.10513 -0.715847 0.360049 -0.0330516 0.246996 0.040747 0.313703 
320 9.1417 23.4716 6.08332 0.215239 -0.0537098 -0.0161339 -0.277085 -0.478479 0.231451 
319 8.43266 24.6927 6.08543 0.421219 0.372572 -0.0782323 0.924948 -0.388805 0.666768 
295 9.14392 21.0173 6.06288 0.145788 0.0676056 -0.00911777 -1.1284 0.025628 -0.2517 
351 15.5107 24.8386 6.18403 0.87463 0.337388 0.0469605 -0.744002 -0.299401 0.884429 
348 16.9369 24.8888 6.20556 -0.467143 0.076293 -0.139487 1.97586 -0.854888 1.78944 
208 8.43737 19.7851 6.04743 -0.225637 0.159375 0.13612 -0.6201 -0.898889 1.19241 
294 8.43028 22.235 6.04201 -0.087349 0.234906 0.132477 0.0656156 0.930427 0.368488 
140 8.44821 12.4574 6.15388 0.497127 0.127144 0.189899 -1.01189 -0.619309 0.449024 
331 13.3991 23.5757 6.13825 -0.554355 -0.41369 -0.0358452 1.22014 -0.648758 -1.02905 
35 10.5809 13.7564 6.19452 0.435452 0.448039 -0.0325177 1.71475 -0.449326 0.997048 
66 7.03962 17.3 6.1149 -0.802642 -0.18836 -0.103991 -0.569103 0.763919 -0.249782 
293 7.00723 22.1979 6.06149 0.666655 0.710216 0.0320759 -1.31312 -1.67801 1.0073 
40 11.3125 12.5552 6.16919 -0.337727 -0.342527 0.0702515 -0.43074 0.390744 0.117164 
318 7.02638 24.6667 6.08475 -0.381462 0.0433278 -0.119736 -0.344586 2.12642 1.4227 
330 11.2714 24.7482 6.10559 -0.161928 -0.100604 -0.181835 -1.05087 0.853531 -0.897854 
292 6.31037 23.4383 6.06665 0.553504 -0.629103 0.0706394 -0.0799858 0.545044 1.68951 
143 8.4375 14.9091 6.16851 0.831576 -0.159645 -0.0693375 -2.16297 1.74073 -0.524683 
142 7.03348 14.843 6.1204 -0.335189 -0.0154114 0.102676 1.33778 -1.56468 0.00554949 
139 7.03196 12.3876 6.14476 0.348008 0.0645667 -0.0823943 -1.73547 -0.208941 -1.50632 
25 11.3312 10.1103 6.14579 -0.213104 0.721263 0.0642431 -0.717745 0.826718 -2.28889 
196 19.1202 14.0245 6.15231 -0.133819 0.316883 -0.0345501 4.18405 0.89851 1.83339 
136 9.20104 8.8165 6.14941 0.0586285 -0.527333 -0.00535007 -2.12173 -0.683673 -0.296446 
12 11.3548 7.69658 6.14823 -0.278989 -0.232982 0.103178 -1.42239 -2.03219 -1.25139 
7 10.6184 8.89303 6.17665 -0.0923537 -0.284919 -0.219729 0.483397 2.3441 0.337882 
36 12.7263 12.6273 6.1644 -0.256428 0.291692 -0.135056 -1.327 0.268251 -2.17202 
198 13.4309 16.2844 6.10438 -0.161805 -0.579104 -0.208258 -0.450098 -0.191601 1.11702 
60 17.7212 11.5436 6.1736 0.27549 0.495433 0.15174 0.576127 -1.37565 3.10377 
8 12.7657 7.76507 6.16205 0.252844 0.357821 0.0339954 0.972765 0.48466 -0.728622 
52 10.5757 16.19 6.15037 -0.413074 0.500243 -0.00892314 1.00647 0.225235 2.2164 
38 17.0076 10.3269 6.20504 0.21663 -0.0327809 -0.044368 -0.0595934 0.594541 -0.785296 
194 14.8512 16.3322 6.05789 -0.377401 0.371629 0.087882 0.121558 0.900994 -0.450553 
138 6.32501 13.6057 6.14169 -0.259898 0.0445544 -0.190435 -0.838067 -1.00979 -0.524422 
20 10.592 11.318 6.16915 0.893247 0.209663 -0.0974393 0.641781 -0.300449 1.07339 
141 9.18775 11.2511 6.15355 -0.752797 -0.0612919 -0.0259561 0.729131 -1.27062 0.514236 
59 15.5826 12.7054 6.11622 0.365165 -0.472481 -0.0515483 1.26484 -1.39884 0.233227 
55 17.0033 12.7555 6.1268 -0.375501 -0.0473574 -0.0379915 0.214488 2.16694 1.24632 
200 17.707 13.9829 6.0956 0.274731 -0.4137 0.24978 1.60463 1.08605 0.837476 
54 14.8629 13.9065 6.11826 -0.646841 0.338487 -0.112422 0.462738 0.389476 0.347356 
37 14.8775 11.4738 6.11472 -0.637682 0.243852 0.194622 -0.982946 -0.062482 0.887497 
21 12.7438 10.1958 6.12564 0.109385 -0.0683161 0.0497574 -0.153247 0.0709613 0.316754 
199 15.5736 15.1309 6.05506 0.223755 -0.193901 0.261617 -0.471873 -1.60787 -0.6926 
41 13.4468 11.4317 6.12527 0.73324 -0.74224 0.0120448 -1.02886 -0.400462 0.498651 
58 13.4328 13.8556 6.12653 0.574545 -0.240954 0.0303426 -0.710031 -0.257374 -0.703943 
289 17.7025 16.3957 6.08592 -0.0611316 0.637132 0.0782025 1.52699 1.68412 -2.19072 
53 12.7056 15.0581 6.11891 0.417911 0.134844 0.174457 0.727442 -0.676783 0.459493 
195 16.9916 15.1856 6.114 -0.556633 -0.258054 -0.321881 -0.177773 -0.145461 1.3872 
22 14.8912 9.05977 6.17474 -0.292424 -0.388328 0.0574412 -1.71032 0.186914 -1.38181 
26 13.4797 8.99225 6.14558 -0.167601 0.0514703 0.0114491 -0.397468 0.747279 1.15402 
285 19.1146 16.4441 6.12919 -0.163192 0.104945 0.101558 -1.14683 0.472385 -0.0746224 
42 15.5917 10.2653 6.18981 0.601682 0.834347 -0.15852 0.579475 0.724419 -0.519879 
56 19.1419 11.606 6.23448 -0.299467 -0.410738 -0.164995 -1.16038 -0.371195 -1.99099 
68 9.16255 16.1377 6.14851 -0.257093 -0.114255 -0.0172491 0.102208 0.948581 1.62405 
43 17.753 9.13329 6.21201 -0.199353 -0.136774 0.136304 1.79193 -0.0622588 0.573627 
39 19.166 9.18203 6.25481 -0.11297 -0.327364 -0.213438 1.14154 -0.219715 -1.58577 
23 17.0439 7.91323 6.21736 -0.212229 0.229037 0.014433 0.88287 0.867176 -0.369521 
57 11.2955 14.994 6.18535 0.00508176 -0.629562 -0.175087 0.449835 -2.59142 1.81835 
873 14.8188 43.1559 6.06637 -0.906572 0.35547 -0.04674 0.588713 0.609738 -0.659383 
274 6.31801 43.0841 6.10802 0.335432 -0.00088809 0.0211315 0.785707 -1.4608 0.158364 
276 8.44129 41.8846 6.05882 -0.194554 -0.10018 0.0782609 1.31952 0.359973 -0.0240501 
363 11.2791 29.6599 6.06685 -0.465295 -0.578817 0.0172177 -1.5232 0.611527 1.4104 
210 10.5648 30.8635 6.08615 -0.635111 0.804799 -0.212829 -0.81022 -0.148504 -0.520687 
360 9.14932 28.3933 6.07645 -0.412188 -0.0647272 -0.0716361 -0.308385 1.57146 -0.0634837 
340 9.14616 25.9308 6.06101 -0.251716 -0.152071 0.0154205 0.826285 1.41116 -0.310088 
248 19.0637 33.4402 6.11012 0.227827 0.0122771 0.056337 -0.0148601 -0.466314 -1.00574 
218 14.7996 30.9711 6.09428 0.436224 -1.0304 -0.0151816 1.16551 -0.591518 -1.37442 
253 19.7812 32.2261 6.11 -0.0015417 -0.0767945 0.012839 0.962614 -1.59476 0.944224 
345 10.5599 28.4251 6.08825 0.186833 0.494104 -0.175244 0.433315 -0.351278 -1.28536 
275 7.03279 41.8569 6.11066 -0.390304 0.209863 -0.21947 0.994479 1.14466 -0.518293 
327 10.5553 25.9638 6.03287 0.427207 0.350882 0.324285 0.599256 2.0112 -0.617777 
222 13.3934 30.9289 6.04593 -0.528598 0.177464 0.0734508 0.345827 0.472705 -1.11226 
260 6.31655 40.6339 6.09858 0.184312 -0.524175 -0.0354491 0.103929 -1.62736 -1.75527 
374 9.13981 30.8329 6.07916 0.138459 0.250194 -0.0455834 0.292492 0.952202 -0.493793 
874 16.9305 41.9614 6.03172 0.114419 -0.506708 0.15098 -0.879851 -1.13162 1.29616 
211 12.6823 29.7051 6.04125 0.374876 -0.526086 0.13839 -1.26132 1.74493 1.71512 
785 16.9266 39.5037 6.07309 -0.176462 0.320292 -0.00936773 1.39573 -0.868457 0.237974 
216 10.5464 33.3275 6.06463 0.166292 0.129294 -0.00203232 -0.0202785 1.25516 -0.846479 
359 8.42423 29.6094 6.05013 0.350267 -0.109124 0.184589 -0.667113 0.86705 0.143997 
371 6.31932 33.2654 6.09272 -0.165396 -0.168279 0.0211897 -0.893552 -0.301401 -0.0497887 
878 15.5179 41.9434 6.04992 -0.0596728 -0.886052 -0.0292759 0.402311 0.12659 2.71729 
338 7.02779 27.116 6.08648 0.244356 0.412732 -0.076915 -1.056 -1.83976 -1.46304 
337 6.32337 28.3389 6.10207 -0.265464 0.0404777 -0.121839 0.039153 0.348109 -0.169883 
349 11.2636 27.2069 6.06554 -0.0761798 -0.463586 -0.0414923 -2.12544 0.211114 -0.620046 
270 19.7765 34.6603 6.08894 0.182658 0.23321 0.0582778 -2.22276 0.704951 0.321472 
789 15.507 39.4873 6.09659 0.168409 -0.262898 -0.240976 0.210188 0.429181 0.059241 
252 17.6526 33.4122 6.13898 0.0148751 0.612308 -0.294016 0.838898 -1.32966 0.520939 
381 9.13802 33.294 6.08521 -0.369223 -0.0558211 -0.125584 -0.708297 1.25891 0.131907 
221 11.2571 32.1094 6.04763 -0.207925 -0.328522 0.116295 -0.905572 -0.189949 0.549973 
339 8.44381 27.1593 6.0707 -0.113127 -0.239826 -0.0230848 -2.38475 -0.506 0.68148 
791 19.7895 37.1128 6.10078 -0.872292 -0.483559 0.0339387 -1.11522 2.08009 1.63713 
373 8.42694 32.0599 6.06705 0.170848 -0.0193233 0.136987 -1.34205 0.591157 0.525204 
784 14.7996 40.7055 6.0609 0.456467 0.645634 -0.00299235 1.18083 0.0632865 -1.5416 
790 17.6416 38.2901 6.07437 -0.0118876 -0.100492 0.176232 -1.63848 -3.60795 -1.96097 
358 7.01253 29.5757 6.07638 0.196592 0.116739 0.00878326 0.0736118 -0.0871827 0.43079 
277 9.13685 40.6635 6.00965 0.119463 -0.539348 0.214331 -0.353996 0.221557 -0.360933 
385 8.43996 36.9752 6.06632 0.100917 -0.502985 -0.00169944 -1.71131 -0.615443 -1.2323 
380 8.42513 34.5176 6.06852 0.947135 0.252607 0.0975657 -0.469824 1.20161 -0.477055 
386 9.15499 35.7482 6.0822 -0.36208 0.0667544 -0.198554 1.17175 1.14867 0.413024 
269 17.6473 35.8637 6.08374 0.00400895 -0.265199 0.0597664 -0.017522 0.905036 -0.68712 
799 9.1378 43.1093 6.08098 0.45629 0.113458 0.156157 0.267043 0.858925 -0.774122 
782 10.5568 43.1331 6.10538 -0.0105937 -0.286395 -0.085248 -1.98465 -0.057562 0.648369 
370 4.90868 33.2252 6.09765 0 0 0 0 0 0 
356 4.90868 30.7652 6.09765 0 0 0 0 0 0 
336 4.90868 28.3052 6.09765 0 0 0 0 0 0 
316 4.90868 25.8452 6.09765 0 0 0 0 0 0 
372 7.00913 32.0365 6.09619 0.525746 -0.10982 -0.12716 -1.18776 0.313644 0.968893 
235 13.3855 33.3663 6.06038 -0.0617073 0.165924 0.0236381 0.289614 0.00434959 -1.35087 
877 13.3916 43.1422 6.074 0.733361 0.1967 0.0125648 -0.459486 -1.11172 0.603111 
237 17.647 30.9838 6.1327 0.0784288 0.374037 0.00602946 -0.664121 3.23266 -1.46408 
232 16.9409 32.2022 6.07189 -0.646795 -0.26201 0.303206 1.03646 -0.237321 -1.07125 
880 19.7581 39.5439 6.14412 0.464404 0.14278 -0.201532 -1.39729 -1.26318 1.7413 
220 19.0693 28.5765 6.15893 -0.333882 0.230301 -0.0322295 1.17077 1.69049 -1.59667 
317 6.31956 25.8971 6.04713 0.0772991 -0.735153 0.330206 -0.669654 -1.77797 0.550879 
263 14.7946 38.2576 6.06761 0.631766 0.51403 0.151114 0.653192 1.27859 -1.15224 
265 19.0619 35.88 6.07864 0.392362 0.435748 0.053095 2.25068 -2.85262 2.28926 
219 16.9418 29.7764 6.18819 -0.550012 -0.875556 -0.282944 0.46593 -0.542824 2.68429 
212 14.7957 28.5044 6.1296 0.468424 0.203719 0.0580062 -0.440657 -0.233179 -0.471792 
223 15.5194 29.7359 6.15024 -0.260151 0.336019 -0.0966331 -1.84163 0.545613 -2.28708 
364 13.3863 28.474 6.07748 -0.0142035 0.248003 -0.0145238 1.58072 -0.413589 -0.304018 
213 16.9288 27.3388 6.20128 -0.0150737 -0.611227 -0.0622218 -0.858889 -0.136424 -2.01433 
264 16.9231 37.0692 6.09893 0.301403 0.301248 -0.0809917 0.00139504 1.93346 -1.2354 
214 19.0616 26.157 6.18664 0.139367 -0.187013 -0.0211187 1.02198 1.6315 -0.847952 
225 19.7849 27.3718 6.15787 0.0322883 -0.221027 0.118685 -0.985407 1.03782 1.33613 
268 15.5119 37.0465 6.09662 0.0553974 0.0841158 -0.104994 -0.896658 1.83432 2.06138 
233 19.0544 31.0081 6.14241 0.774148 -0.0484775 -0.150253 -1.7158 0.374713 1.82589 
224 17.6494 28.5475 6.1642 0.213091 0.564281 0.139208 -1.19344 1.25703 1.10968 
786 19.0571 38.3211 6.11454 -0.0535233 -0.177591 -0.0697241 -0.188772 -2.08313 0.537755 
378 6.31813 35.7153 6.05596 0.158403 0.0459426 0.139228 -0.743161 0.937982 -1.00793 
379 7.02512 34.4959 6.0901 -0.506965 -0.202439 -0.102213 -0.615909 1.04978 -1.16702 
389 9.1402 38.1991 6.05671 -0.0895352 0.627025 -0.0349663 -0.297116 0.0252987 1.29756 
787 11.2574 41.9008 6.0845 0.665733 0.241903 -0.103119 -0.134698 -0.830118 -2.08526 
249 11.2769 37.0134 6.05023 -0.376823 0.0663528 0.056432 0.0130559 0.723891 -0.390233 
229 10.573 35.7812 6.03816 -0.572623 0.0693025 0.115115 -1.60327 -0.195744 -0.793519 
259 4.90868 40.6052 6.09765 0 0 0 0 0 0 
250 13.392 35.8052 6.10066 -0.0164887 -0.085501 -0.0841548 0.861629 0.389917 -0.210471 
388 8.42405 39.4292 6.05962 0.412072 -0.154867 -0.212449 -0.891181 -0.46528 -0.950562 
273 4.90868 43.0652 6.09765 0 0 0 0 0 0 
234 11.2604 34.5567 6.05096 -0.0395465 -0.250441 0.128445 -1.12352 -0.0351816 -1.19873 
382 4.90868 38.1452 6.09765 0 0 0 0 0 0 
377 4.90868 35.6852 6.09765 0 0 0 0 0 0 
262 12.6806 39.4693 6.03311 -0.000840142 0.299758 0.144553 -0.568619 -2.79864 2.21437 
244 10.5502 38.2381 6.04906 0.571374 -0.42917 0.0164291 -0.260508 -0.46272 -0.773902 
267 13.3942 38.254 6.07847 -0.45765 -0.109512 -0.161228 -1.44507 0.0389947 0.976581 