ITEM: TIMESTEP
8900
ITEM: NUMBER OF ATOMS
4798
ITEM: BOX BOUNDS ff ff ff
-10.3577 110.358
-10.0998 131.9
-100.402 112.598
ITEM: ATOMS id x y z fx fy fz vx vy vz 
72 -0.062301 2.4752 6.09765 0 0 0 0 0 0 
110 4.19854 7.39519 6.09765 0 0 0 0 0 0 
109 2.77826 7.39519 6.09765 0 0 0 0 0 0 
93 4.19854 4.9352 6.09765 0 0 0 0 0 0 
92 2.77826 4.9352 6.09765 0 0 0 0 0 0 
91 2.06812 6.16519 6.09765 0 0 0 0 0 0 
87 0.647839 6.16519 6.09765 0 0 0 0 0 0 
86 -0.062301 7.39519 6.09765 0 0 0 0 0 0 
81 4.19854 2.4752 6.09765 0 0 0 0 0 0 
80 2.77826 2.4752 6.09765 0 0 0 0 0 0 
79 2.06812 3.7052 6.09765 0 0 0 0 0 0 
78 0.647839 3.7052 6.09765 0 0 0 0 0 0 
77 -0.062301 4.9352 6.09765 0 0 0 0 0 0 
76 4.19854 0.015197 6.09765 0 0 0 0 0 0 
75 2.77826 0.015197 6.09765 0 0 0 0 0 0 
74 2.06812 1.2452 6.09765 0 0 0 0 0 0 
73 0.647839 1.2452 6.09765 0 0 0 0 0 0 
6 -0.062301 12.3152 6.09765 0 0 0 0 0 0 
131 4.19854 12.3152 6.09765 0 0 0 0 0 0 
130 2.77826 12.3152 6.09765 0 0 0 0 0 0 
124 4.19854 9.85519 6.09765 0 0 0 0 0 0 
123 2.77826 9.85519 6.09765 0 0 0 0 0 0 
122 2.06812 11.0852 6.09765 0 0 0 0 0 0 
117 0.647839 11.0852 6.09765 0 0 0 0 0 0 
108 2.06812 8.62519 6.09765 0 0 0 0 0 0 
100 0.647839 8.62519 6.09765 0 0 0 0 0 0 
99 -0.062301 9.85519 6.09765 0 0 0 0 0 0 
34 4.19854 14.7752 6.09765 0 0 0 0 0 0 
33 2.77826 14.7752 6.09765 0 0 0 0 0 0 
32 2.06812 16.0052 6.09765 0 0 0 0 0 0 
31 0.647839 16.0052 6.09765 0 0 0 0 0 0 
19 2.06812 13.5452 6.09765 0 0 0 0 0 0 
18 0.647839 13.5452 6.09765 0 0 0 0 0 0 
17 -0.062301 14.7752 6.09765 0 0 0 0 0 0 
300 4.19854 24.6152 6.09765 0 0 0 0 0 0 
299 2.77826 24.6152 6.09765 0 0 0 0 0 0 
204 4.19854 22.1552 6.09765 0 0 0 0 0 0 
203 2.77826 22.1552 6.09765 0 0 0 0 0 0 
202 2.06812 23.3852 6.09765 0 0 0 0 0 0 
191 0.647839 23.3852 6.09765 0 0 0 0 0 0 
190 -0.062301 24.6152 6.09765 0 0 0 0 0 0 
71 2.06812 20.9252 6.09765 0 0 0 0 0 0 
70 0.647839 20.9252 6.09765 0 0 0 0 0 0 
69 -0.062301 22.1552 6.09765 0 0 0 0 0 0 
63 4.19854 19.6952 6.09765 0 0 0 0 0 0 
62 2.77826 19.6952 6.09765 0 0 0 0 0 0 
49 4.19854 17.2352 6.09765 0 0 0 0 0 0 
48 2.77826 17.2352 6.09765 0 0 0 0 0 0 
47 2.06812 18.4652 6.09765 0 0 0 0 0 0 
46 0.647839 18.4652 6.09765 0 0 0 0 0 0 
45 -0.062301 19.6952 6.09765 0 0 0 0 0 0 
30 -0.062301 17.2352 6.09765 0 0 0 0 0 0 
355 4.19854 31.9952 6.09765 0 0 0 0 0 0 
354 2.77826 31.9952 6.09765 0 0 0 0 0 0 
353 2.06812 33.2252 6.09765 0 0 0 0 0 0 
344 0.647839 33.2252 6.09765 0 0 0 0 0 0 
335 4.19854 29.5352 6.09765 0 0 0 0 0 0 
334 2.77826 29.5352 6.09765 0 0 0 0 0 0 
333 2.06812 30.7652 6.09765 0 0 0 0 0 0 
326 0.647839 30.7652 6.09765 0 0 0 0 0 0 
325 -0.062301 31.9952 6.09765 0 0 0 0 0 0 
315 4.19854 27.0752 6.09765 0 0 0 0 0 0 
314 2.77826 27.0752 6.09765 0 0 0 0 0 0 
313 2.06812 28.3052 6.09765 0 0 0 0 0 0 
308 0.647839 28.3052 6.09765 0 0 0 0 0 0 
307 -0.062301 29.5352 6.09765 0 0 0 0 0 0 
298 2.06812 25.8452 6.09765 0 0 0 0 0 0 
297 0.647839 25.8452 6.09765 0 0 0 0 0 0 
296 -0.062301 27.0752 6.09765 0 0 0 0 0 0 
215 -0.062301 36.9152 6.09765 0 0 0 0 0 0 
376 4.19854 36.9152 6.09765 0 0 0 0 0 0 
375 2.77826 36.9152 6.09765 0 0 0 0 0 0 
369 4.19854 34.4552 6.09765 0 0 0 0 0 0 
368 2.77826 34.4552 6.09765 0 0 0 0 0 0 
367 2.06812 35.6852 6.09765 0 0 0 0 0 0 
362 0.647839 35.6852 6.09765 0 0 0 0 0 0 
343 -0.062301 34.4552 6.09765 0 0 0 0 0 0 
258 4.19854 41.8352 6.09765 0 0 0 0 0 0 
257 2.77826 41.8352 6.09765 0 0 0 0 0 0 
256 2.06812 43.0652 6.09765 0 0 0 0 0 0 
255 0.647839 43.0652 6.09765 0 0 0 0 0 0 
243 4.19854 39.3752 6.09765 0 0 0 0 0 0 
242 2.77826 39.3752 6.09765 0 0 0 0 0 0 
241 2.06812 40.6052 6.09765 0 0 0 0 0 0 
240 0.647839 40.6052 6.09765 0 0 0 0 0 0 
239 -0.062301 41.8352 6.09765 0 0 0 0 0 0 
228 2.06812 38.1452 6.09765 0 0 0 0 0 0 
227 0.647839 38.1452 6.09765 0 0 0 0 0 0 
226 -0.062301 39.3752 6.09765 0 0 0 0 0 0 
254 -0.062301 44.2952 6.09765 0 0 0 0 0 0 
905 4.19854 51.6752 6.09765 0 0 0 0 0 0 
904 2.77826 51.6752 6.09765 0 0 0 0 0 0 
890 4.19854 49.2152 6.09765 0 0 0 0 0 0 
889 2.77826 49.2152 6.09765 0 0 0 0 0 0 
888 2.06812 50.4452 6.09765 0 0 0 0 0 0 
887 0.647839 50.4452 6.09765 0 0 0 0 0 0 
886 -0.062301 51.6752 6.09765 0 0 0 0 0 0 
794 4.19854 46.7552 6.09765 0 0 0 0 0 0 
793 2.77826 46.7552 6.09765 0 0 0 0 0 0 
792 2.06812 47.9852 6.09765 0 0 0 0 0 0 
781 0.647839 47.9852 6.09765 0 0 0 0 0 0 
780 -0.062301 49.2152 6.09765 0 0 0 0 0 0 
280 2.06812 45.5252 6.09765 0 0 0 0 0 0 
279 0.647839 45.5252 6.09765 0 0 0 0 0 0 
278 -0.062301 46.7552 6.09765 0 0 0 0 0 0 
272 4.19854 44.2952 6.09765 0 0 0 0 0 0 
271 2.77826 44.2952 6.09765 0 0 0 0 0 0 
959 4.19854 59.0552 6.09765 0 0 0 0 0 0 
958 2.77826 59.0552 6.09765 0 0 0 0 0 0 
957 2.06812 60.2852 6.09765 0 0 0 0 0 0 
952 0.647839 60.2852 6.09765 0 0 0 0 0 0 
945 4.19854 56.5952 6.09765 0 0 0 0 0 0 
944 2.77826 56.5952 6.09765 0 0 0 0 0 0 
943 2.06812 57.8252 6.09765 0 0 0 0 0 0 
934 0.647839 57.8252 6.09765 0 0 0 0 0 0 
933 -0.062301 59.0552 6.09765 0 0 0 0 0 0 
925 4.19854 54.1352 6.09765 0 0 0 0 0 0 
924 2.77826 54.1352 6.09765 0 0 0 0 0 0 
923 2.06812 55.3652 6.09765 0 0 0 0 0 0 
916 0.647839 55.3652 6.09765 0 0 0 0 0 0 
915 -0.062301 56.5952 6.09765 0 0 0 0 0 0 
903 2.06812 52.9052 6.09765 0 0 0 0 0 0 
898 0.647839 52.9052 6.09765 0 0 0 0 0 0 
897 -0.062301 54.1352 6.09765 0 0 0 0 0 0 
805 -0.062301 61.5152 6.09765 0 0 0 0 0 0 
966 4.19854 61.5152 6.09765 0 0 0 0 0 0 
965 2.77826 61.5152 6.09765 0 0 0 0 0 0 
862 4.19854 68.8952 6.09765 0 0 0 0 0 0 
861 2.77826 68.8952 6.09765 0 0 0 0 0 0 
848 4.19854 66.4352 6.09765 0 0 0 0 0 0 
847 2.77826 66.4352 6.09765 0 0 0 0 0 0 
846 2.06812 67.6652 6.09765 0 0 0 0 0 0 
845 0.647839 67.6652 6.09765 0 0 0 0 0 0 
844 -0.062301 68.8952 6.09765 0 0 0 0 0 0 
833 4.19854 63.9752 6.09765 0 0 0 0 0 0 
832 2.77826 63.9752 6.09765 0 0 0 0 0 0 
831 2.06812 65.2052 6.09765 0 0 0 0 0 0 
830 0.647839 65.2052 6.09765 0 0 0 0 0 0 
829 -0.062301 66.4352 6.09765 0 0 0 0 0 0 
818 2.06812 62.7452 6.09765 0 0 0 0 0 0 
817 0.647839 62.7452 6.09765 0 0 0 0 0 0 
816 -0.062301 63.9752 6.09765 0 0 0 0 0 0 
1828 4.19854 76.2752 6.09765 0 0 0 0 0 0 
1827 2.77826 76.2752 6.09765 0 0 0 0 0 0 
1826 2.06812 77.5052 6.09765 0 0 0 0 0 0 
1821 0.647839 77.5052 6.09765 0 0 0 0 0 0 
1813 4.19854 73.8152 6.09765 0 0 0 0 0 0 
1812 2.77826 73.8152 6.09765 0 0 0 0 0 0 
1811 2.06812 75.0452 6.09765 0 0 0 0 0 0 
1810 0.647839 75.0452 6.09765 0 0 0 0 0 0 
1809 -0.062301 76.2752 6.09765 0 0 0 0 0 0 
1717 4.19854 71.3552 6.09765 0 0 0 0 0 0 
1716 2.77826 71.3552 6.09765 0 0 0 0 0 0 
1715 2.06812 72.5852 6.09765 0 0 0 0 0 0 
1704 0.647839 72.5852 6.09765 0 0 0 0 0 0 
1703 -0.062301 73.8152 6.09765 0 0 0 0 0 0 
870 2.06812 70.1252 6.09765 0 0 0 0 0 0 
869 0.647839 70.1252 6.09765 0 0 0 0 0 0 
868 -0.062301 71.3552 6.09765 0 0 0 0 0 0 
1728 -0.062301 86.1152 6.09765 0 0 0 0 0 0 
1889 4.19854 86.1152 6.09765 0 0 0 0 0 0 
1888 2.77826 86.1152 6.09765 0 0 0 0 0 0 
1882 4.19854 83.6552 6.09765 0 0 0 0 0 0 
1881 2.77826 83.6552 6.09765 0 0 0 0 0 0 
1880 2.06812 84.8852 6.09765 0 0 0 0 0 0 
1875 0.647839 84.8852 6.09765 0 0 0 0 0 0 
1868 4.19854 81.1952 6.09765 0 0 0 0 0 0 
1867 2.77826 81.1952 6.09765 0 0 0 0 0 0 
1866 2.06812 82.4252 6.09765 0 0 0 0 0 0 
1857 0.647839 82.4252 6.09765 0 0 0 0 0 0 
1856 -0.062301 83.6552 6.09765 0 0 0 0 0 0 
1848 4.19854 78.7352 6.09765 0 0 0 0 0 0 
1847 2.77826 78.7352 6.09765 0 0 0 0 0 0 
1846 2.06812 79.9652 6.09765 0 0 0 0 0 0 
1839 0.647839 79.9652 6.09765 0 0 0 0 0 0 
1838 -0.062301 81.1952 6.09765 0 0 0 0 0 0 
1820 -0.062301 78.7352 6.09765 0 0 0 0 0 0 
1741 2.06812 87.3452 6.09765 0 0 0 0 0 0 
1740 0.647839 87.3452 6.09765 0 0 0 0 0 0 
2677 4.19854 95.9552 6.09765 0 0 0 0 0 0 
2676 2.77826 95.9552 6.09765 0 0 0 0 0 0 
1793 2.06812 94.7252 6.09765 0 0 0 0 0 0 
1792 0.647839 94.7252 6.09765 0 0 0 0 0 0 
1791 -0.062301 95.9552 6.09765 0 0 0 0 0 0 
1785 4.19854 93.4952 6.09765 0 0 0 0 0 0 
1784 2.77826 93.4952 6.09765 0 0 0 0 0 0 
1771 4.19854 91.0352 6.09765 0 0 0 0 0 0 
1770 2.77826 91.0352 6.09765 0 0 0 0 0 0 
1769 2.06812 92.2652 6.09765 0 0 0 0 0 0 
1768 0.647839 92.2652 6.09765 0 0 0 0 0 0 
1767 -0.062301 93.4952 6.09765 0 0 0 0 0 0 
1756 4.19854 88.5752 6.09765 0 0 0 0 0 0 
1755 2.77826 88.5752 6.09765 0 0 0 0 0 0 
1754 2.06812 89.8052 6.09765 0 0 0 0 0 0 
1753 0.647839 89.8052 6.09765 0 0 0 0 0 0 
1752 -0.062301 91.0352 6.09765 0 0 0 0 0 0 
1739 -0.062301 88.5752 6.09765 0 0 0 0 0 0 
2663 -0.062301 98.4152 6.09765 0 0 0 0 0 0 
2808 4.19854 103.335 6.09765 0 0 0 0 0 0 
2807 2.77826 103.335 6.09765 0 0 0 0 0 0 
2806 2.06812 104.565 6.09765 0 0 0 0 0 0 
2799 0.647839 104.565 6.09765 0 0 0 0 0 0 
2788 4.19854 100.875 6.09765 0 0 0 0 0 0 
2787 2.77826 100.875 6.09765 0 0 0 0 0 0 
2786 2.06812 102.105 6.09765 0 0 0 0 0 0 
2781 0.647839 102.105 6.09765 0 0 0 0 0 0 
2780 -0.062301 103.335 6.09765 0 0 0 0 0 0 
2773 4.19854 98.4152 6.09765 0 0 0 0 0 0 
2772 2.77826 98.4152 6.09765 0 0 0 0 0 0 
2771 2.06812 99.6452 6.09765 0 0 0 0 0 0 
2770 0.647839 99.6452 6.09765 0 0 0 0 0 0 
2769 -0.062301 100.875 6.09765 0 0 0 0 0 0 
2675 2.06812 97.1852 6.09765 0 0 0 0 0 0 
2664 0.647839 97.1852 6.09765 0 0 0 0 0 0 
2849 4.19854 110.715 6.09765 0 0 0 0 0 0 
2848 2.77826 110.715 6.09765 0 0 0 0 0 0 
2842 4.19854 108.255 6.09765 0 0 0 0 0 0 
2841 2.77826 108.255 6.09765 0 0 0 0 0 0 
2840 2.06812 109.485 6.09765 0 0 0 0 0 0 
2835 0.647839 109.485 6.09765 0 0 0 0 0 0 
2828 4.19854 105.795 6.09765 0 0 0 0 0 0 
2827 2.77826 105.795 6.09765 0 0 0 0 0 0 
2826 2.06812 107.025 6.09765 0 0 0 0 0 0 
2817 0.647839 107.025 6.09765 0 0 0 0 0 0 
2816 -0.062301 108.255 6.09765 0 0 0 0 0 0 
2798 -0.062301 105.795 6.09765 0 0 0 0 0 0 
2716 4.19854 113.175 6.09765 0 0 0 0 0 0 
2715 2.77826 113.175 6.09765 0 0 0 0 0 0 
2701 2.06812 111.945 6.09765 0 0 0 0 0 0 
2700 0.647839 111.945 6.09765 0 0 0 0 0 0 
2699 -0.062301 113.175 6.09765 0 0 0 0 0 0 
2688 -0.062301 110.715 6.09765 0 0 0 0 0 0 
2712 -0.062301 115.635 6.09765 0 0 0 0 0 0 
3636 4.19854 120.555 6.09765 0 0 0 0 0 0 
3635 2.77826 120.555 6.09765 0 0 0 0 0 0 
3634 2.06812 121.785 6.09765 0 0 0 0 0 0 
3623 0.647839 121.785 6.09765 0 0 0 0 0 0 
2753 2.06812 119.325 6.09765 0 0 0 0 0 0 
2752 0.647839 119.325 6.09765 0 0 0 0 0 0 
2751 -0.062301 120.555 6.09765 0 0 0 0 0 0 
2745 4.19854 118.095 6.09765 0 0 0 0 0 0 
2744 2.77826 118.095 6.09765 0 0 0 0 0 0 
2731 4.19854 115.635 6.09765 0 0 0 0 0 0 
2730 2.77826 115.635 6.09765 0 0 0 0 0 0 
2729 2.06812 116.865 6.09765 0 0 0 0 0 0 
2728 0.647839 116.865 6.09765 0 0 0 0 0 0 
2727 -0.062301 118.095 6.09765 0 0 0 0 0 0 
2714 2.06812 114.405 6.09765 0 0 0 0 0 0 
2713 0.647839 114.405 6.09765 0 0 0 0 0 0 
85 8.54775 0.339198 5.85832 0.50977 -0.0149117 -0.0613939 -1.35759 0.307028 0.342948 
24 19.169 6.7705 6.01987 -0.391431 -0.287681 0.159617 0.342794 0.907882 0.673668 
9 14.8877 6.61364 6.03608 -0.204612 0.19884 -0.00257269 2.02717 -2.04232 1.4929 
114 8.47667 5.13762 6.08823 0.185796 -0.74678 -0.0119779 0.0437778 -1.19739 1.64772 
2 12.7726 5.31976 6.03881 -0.00221557 0.479809 -0.0400892 3.19151 0.0386964 -1.12908 
113 7.04992 5.03089 6.11109 0.589781 0.276734 0.0913627 0.824195 -0.922969 -1.12583 
13 13.4707 6.55104 6.00696 0.505123 -0.298456 0.178296 0.225883 -0.0127359 -0.299387 
28 17.7476 6.71094 6.07552 0.235185 0.0618817 -0.191856 0.973983 0.570702 -0.494145 
98 9.30175 1.52453 5.98267 -0.13204 -0.132835 -0.00432689 2.03692 -0.780451 -3.54536 
106 13.6043 1.72613 5.99834 -0.0932729 -0.0602399 0.258391 -0.207753 0.911977 -1.91991 
102 12.8317 2.91574 6.04588 0.280106 -0.140775 -0.219883 0.358353 1.73535 1.56318 
105 11.4065 2.83999 6.01714 -0.30587 -0.364684 0.0609513 -0.447908 0.641917 -0.628026 
10 17.041 5.49216 6.00617 0.566808 -0.231889 0.0755137 -0.81855 1.05198 2.36569 
5 19.2639 1.98224 5.39802 0.0644574 0.242485 -0.200428 0.0209228 -0.611967 2.08672 
119 13.526 4.14158 6.02244 0.0857382 -0.294313 -0.0409458 -4.10245 -0.211482 -0.364167 
11 19.213 4.36203 5.84505 0.0926746 0.435227 0.0565815 -2.42186 0.281185 -0.371444 
14 15.6287 5.42694 6.0443 0.19961 -0.185011 -0.202302 -0.258966 1.64179 0.905306 
120 15.7086 3.02404 5.86982 -1.17978 -0.535186 -0.0858291 0.482852 0.660003 1.08991 
15 17.8078 4.31125 5.89245 -0.785248 -0.247049 0.157405 0.480755 2.0953 0.582801 
3 14.9422 4.1989 5.9637 0.107249 0.20436 0.254076 1.09264 -0.0552914 -0.445197 
121 17.8727 1.92767 5.5234 0.336514 -0.663842 0.100156 -0.609559 0.345611 0.731924 
107 15.7721 0.676408 5.41686 -0.0984568 -0.0546219 -0.0341845 -0.109244 -0.635935 1.97532 
4 17.1185 3.07273 5.81157 0.489711 0.941867 -0.165958 -0.904434 -0.704952 -0.187334 
127 7.04954 7.46576 6.13351 0.0987851 0.582942 -0.125962 -1.57315 -1.31761 1.19429 
128 8.47005 7.5575 6.14403 -0.0205221 0.142981 -0.163322 0.211967 -0.653388 -0.313313 
104 17.1441 0.720726 5.4771 0.120631 -0.00849847 -0.0120708 -0.00677324 -0.643085 0.83525 
103 14.9847 1.78588 5.78223 0.499517 0.513637 -0.0123642 -2.12291 -0.484867 -0.96153 
94 4.90868 3.7052 6.09765 0 0 0 0 0 0 
111 4.90868 6.16519 6.09765 0 0 0 0 0 0 
82 4.90868 1.2452 6.09765 0 0 0 0 0 0 
101 10.6453 4.01669 6.06489 0.329812 0.630482 -0.128803 -1.63254 -2.5419 -1.27879 
118 11.3561 5.25492 6.06224 -0.0249661 -0.871868 -0.00842623 -1.56463 -0.455202 -0.400739 
84 7.19081 0.243842 6.01658 -0.381512 -0.390255 0.0511808 -1.1663 -0.686685 -0.772258 
112 6.33189 6.23883 6.14204 -0.482669 0.00491112 -0.157967 0.658255 1.35482 -2.97186 
1 10.6211 6.44112 6.08393 -0.202551 0.253902 -0.205167 -0.271651 0.691921 0.664425 
129 9.20276 6.35707 6.09423 -0.0349481 0.159772 0.127806 -0.928263 1.61868 -1.557 
95 6.33529 3.80061 6.11565 -0.376687 0.203858 -0.127163 -1.79778 -1.86614 -0.660809 
97 8.51754 2.70042 6.04478 -0.0401793 0.374006 0.018416 0.258697 -1.59717 -0.230655 
90 11.5276 0.467279 6.01055 -0.049766 -0.511245 -0.00716455 1.32733 0.871306 -2.60784 
96 7.06547 2.60877 6.08842 0.37147 -0.463542 -0.0924098 0.592351 -2.29582 0.587463 
115 9.22855 3.93463 6.05282 -0.544166 0.221774 0.0960574 -1.03945 -1.57372 -3.44902 
89 12.8778 0.535414 6.23093 0.485691 0.174717 -0.105651 -0.416279 0.308808 1.3229 
83 6.32892 1.35929 6.05284 0.561328 0.310858 0.154735 -1.7071 0.648253 0.227234 
88 10.7026 1.59737 6.00489 -0.130624 0.646276 0.0420574 -0.909733 1.22364 -2.53881 
281 10.5761 21.0827 6.12039 -0.22019 -0.282215 -0.0882199 -0.545302 1.01675 -0.633231 
310 12.6908 22.3517 6.09476 0.248158 0.362548 0.0375503 -0.883735 0.682969 -0.277273 
68 9.16117 16.1294 6.06695 0.310199 -0.256592 0.0434945 2.17322 -0.206446 -0.120031 
35 10.5938 13.7364 6.02518 0.0684393 0.575423 0.167623 1.18568 0.0982675 1.22537 
144 9.1818 13.6853 6.09153 -0.41343 -1.02556 -0.351907 -1.24879 0.756807 2.72109 
143 8.46014 14.8814 6.0887 -0.38652 1.04409 -0.0406771 -0.138841 2.16586 0.543497 
142 7.03619 14.8342 6.0831 0.0554777 -0.102434 0.15819 -1.85239 0.170877 0.349995 
194 14.8273 16.3339 5.99904 0.699803 0.242682 0.257468 1.17465 0.124147 0.52107 
198 13.4257 16.2688 6.04827 -0.442211 0.284838 -0.202303 0.275322 1.07281 0.25477 
27 15.5904 7.83575 6.06471 0.590573 0.191093 -0.0160314 -0.635342 -0.963699 1.73015 
36 12.7179 12.5974 6.02311 0.212594 0.628631 0.0106088 1.55798 -0.0781267 1.9466 
58 13.4354 13.8348 6.01743 -0.294732 -0.103706 0.0760063 -0.45035 -0.859153 1.04294 
138 6.31266 13.602 6.11137 0.639626 0.0413001 -0.182739 1.17498 1.05608 1.55124 
52 10.5806 16.1825 6.06624 0.116339 0.221366 -0.199661 0.400301 -0.775711 -0.433617 
57 11.3129 14.9764 6.02122 -0.780333 -0.282867 0.106324 -0.839866 1.16746 -1.42295 
23 17.0114 7.90592 6.074 -0.0590627 -0.0674037 -0.010057 1.61242 -1.24082 -0.293608 
43 17.7284 9.12374 6.06553 -0.0949782 0.0785959 0.126699 1.90629 -0.151194 1.38715 
42 15.581 10.2687 6.10979 -0.346737 0.0391157 -0.106455 0.955206 1.05387 -0.68369 
285 19.1041 16.4374 6.08362 -0.284521 -0.0118972 0.01443 1.58621 0.0559968 -0.00585918 
26 13.457 8.9665 6.06161 -0.306112 0.591919 -0.16249 0.195216 1.02994 -0.727567 
22 14.8677 9.03836 6.07541 0.0239404 0.199544 0.0663402 -0.617433 -1.52288 0.311619 
53 12.7178 15.0453 6.01056 -0.0311597 -0.205373 0.0615205 1.70865 0.997872 1.07217 
306 19.8165 17.6557 6.09104 0.0297311 0.797757 -0.028748 1.32358 0.239363 3.3515 
192 10.571 18.6322 6.02497 0.148174 -0.11487 0.102449 1.37883 1.70426 2.00542 
283 14.8193 18.7698 6.01792 0.737622 -0.318644 0.0588807 -0.213675 -2.6777 -0.398756 
282 12.6873 19.9201 6.07102 0.665093 -0.761805 -0.260827 -0.855885 1.4274 0.0803204 
351 15.5132 24.8246 6.12471 0.744984 1.02887 -0.13042 1.13469 -2.53285 1.5185 
312 13.4062 21.1384 6.04762 0.0395965 0.303966 0.0833982 -0.192994 -0.246481 -0.327403 
209 9.16025 18.582 6.05712 0.151424 0.0428297 -0.0557233 -1.2199 -0.515649 1.82994 
287 13.4218 18.6977 6.05039 -0.98114 0.853319 0.0521856 1.20364 -0.771705 -0.461046 
342 19.7962 22.509 6.03659 0.0788708 0.572725 0.0117513 0.0911979 -0.643081 0.0593733 
67 8.45657 17.3503 6.05189 -0.0865631 -0.158226 0.0392656 -0.0780564 -0.0443097 1.5686 
301 14.8209 21.1856 6.03772 -0.438619 1.01997 0.0265624 -2.61803 1.49331 1.3958 
324 19.805 20.1005 6.04971 0.71448 -0.788096 0.168715 -1.41761 0.686039 -0.191002 
193 12.7019 17.4826 6.05384 0.159951 -0.50554 -0.0550202 0.65587 -1.018 -0.827627 
197 11.2925 17.4197 6.04112 -0.319738 -0.105531 0.0715196 3.24828 -0.193654 0.0397506 
304 15.527 19.9966 6.02574 1.06758 -1.04623 -0.0322871 0.948192 0.450664 -0.0188662 
305 17.6777 18.8203 6.05634 -0.313366 0.984969 -0.0834395 -2.23829 0.0251366 2.16279 
329 14.8117 23.6109 6.07511 -0.326215 -0.0505151 0.0368318 0.106451 1.89522 1.07264 
303 19.0894 18.8841 6.07617 0.39661 -0.975534 -0.0888547 1.70951 -0.253913 2.11427 
288 15.5459 17.5575 6.00847 -0.157256 0.189157 0.0429788 2.75155 0.549265 1.3266 
284 16.9595 17.6087 6.0317 0.0783113 -0.401678 0.0232538 0.400933 2.12698 1.57013 
322 19.0987 21.2955 6.05103 -1.16118 0.325674 0.0290235 0.709924 1.5967 -0.316868 
302 16.9521 20.0495 6.03913 -0.013929 -0.836824 0.0733795 -0.889891 1.15325 -1.31252 
207 7.03742 19.745 6.12015 0.124096 0.492211 -0.0792479 1.70709 0.210056 -2.33513 
331 13.3921 23.5896 6.08771 0.247797 -0.297797 0.033528 0.34789 1.06392 -1.69995 
295 9.16222 21.0364 6.13003 0.286316 -0.270211 -0.0296637 1.13976 -2.2616 1.74095 
309 10.5658 23.5357 6.15279 0.285581 -0.149448 -0.0808938 1.24711 0.701608 0.0516878 
328 12.6874 24.8129 6.11436 0.0155002 -0.293326 0.0500331 -1.38024 0.26006 -0.212785 
311 11.2842 22.3111 6.14671 -0.326856 0.207861 -0.112426 0.914818 -3.27798 1.14137 
126 6.32826 8.68338 6.05434 -0.0917214 -0.19795 0.3011 0.0582614 -2.38415 1.84359 
323 17.6746 21.2663 6.07861 0.494525 -0.374115 -0.191093 0.0916901 1.9956 2.07 
133 6.32312 11.1421 6.0568 0.23222 -0.0796161 0.0189983 1.50053 0.248707 -0.0767239 
135 8.45054 10.0018 6.05442 0.522378 -0.240385 -0.0266204 -1.44175 0.00433607 0.0415257 
286 11.281 19.858 6.03147 -0.168768 0.487646 0.252836 1.45057 2.0082 1.35823 
321 16.9592 22.4692 6.07091 -0.523183 0.0354285 -0.100958 -1.38858 1.43011 1.46382 
51 6.32248 16.0563 6.09411 0.42956 0.174553 -0.146773 1.38518 -2.41659 0.131661 
65 6.32225 18.5189 6.08647 0.305112 -0.486797 0.0273545 0.589756 -1.21059 2.42493 
208 8.46029 19.8051 6.10344 -0.581237 -0.27721 0.0385286 -2.73435 -0.736726 1.25893 
66 7.04837 17.2938 6.05884 -0.855659 0.0595419 0.152711 -1.05124 0.624777 -0.398914 
139 7.03395 12.3882 6.06461 -0.424466 -0.353062 0.0916941 -0.280499 -2.26681 -0.859827 
21 12.7264 10.1828 6.04354 0.332684 -0.573041 0.0978282 -1.2767 2.22882 1.63083 
40 11.308 12.5283 6.03931 -0.391178 -0.219987 -0.0653692 -0.0656373 0.64415 -0.954267 
352 17.6573 23.6941 6.05701 0.683267 -0.550724 0.0391177 -1.92335 -0.686386 1.68592 
206 6.32436 20.9721 6.11721 -0.0172453 -0.417446 -0.0810852 -0.743297 0.301935 -0.91475 
37 14.8509 11.4835 6.09999 0.263609 -0.836682 -0.0524731 3.26676 0.678795 -0.356359 
348 16.9446 24.89 6.09969 -1.05717 0.440159 0.094679 0.468546 0.419752 1.06314 
294 8.45624 22.2466 6.14801 -0.366296 0.203925 -0.211317 -1.02434 -0.632699 0.488576 
341 19.0769 23.7216 6.04614 -0.165172 0.231754 0.0835296 -0.996352 0.687207 0.451341 
293 7.04213 22.194 6.10757 -0.123861 0.654437 0.139733 -0.222346 0.790942 -1.39372 
361 19.7854 24.9512 6.09221 -0.395406 -0.486114 0.0658645 0.472431 -0.449379 -0.163212 
54 14.8422 13.9136 6.06283 0.476742 -0.608176 -0.0356608 0.246456 0.86668 0.390805 
195 16.9749 15.1696 6.06906 -0.169216 0.65954 -0.102525 1.31052 1.82297 -0.613715 
200 17.7051 13.9792 6.08406 -0.527801 -0.758513 0.0609918 -1.91779 -2.21783 0.726602 
39 19.148 9.17831 6.06073 -0.0217048 -0.323298 -0.186805 -0.810423 2.29454 -0.327871 
289 17.6835 16.3949 6.04833 0.161465 0.125722 0.0898008 0.317674 -1.06922 0.33008 
41 13.4441 11.4005 6.03758 -0.0293983 0.0821944 0.108859 1.60692 1.45257 -0.11695 
199 15.5587 15.1381 6.05471 -0.044285 -0.60198 -0.0554507 1.45297 -0.295287 -0.253799 
140 8.44188 12.4478 6.04818 0.83818 0.286027 0.0480817 -1.29247 1.19297 -0.789933 
20 10.57 11.3008 6.04118 1.10996 0.51085 -0.0134925 0.640315 -1.46801 2.27576 
141 9.16768 11.2339 6.02541 -0.613424 -0.0266363 0.181273 -0.388178 0.0905706 1.82036 
38 16.9919 10.3254 6.10612 0.564012 0.135907 -0.0402581 0.166194 0.700757 0.561887 
8 12.7468 7.74544 6.01176 -0.10328 0.105732 0.143988 -0.0126215 3.74955 0.837525 
60 17.7157 11.5486 6.10004 -0.470232 -0.157598 -0.0469059 0.834986 -0.0132614 -0.207394 
7 10.5997 8.86618 6.05824 0.490791 0.325516 0.0489884 0.820869 1.01749 0.384522 
25 11.3161 10.1096 6.06786 -0.63215 -0.754008 -0.157613 -0.407294 0.396302 0.779992 
59 15.5679 12.6974 6.10425 -0.0933131 0.556408 -0.154599 2.75115 -0.434261 0.758 
12 11.3385 7.66208 6.02689 -0.54756 0.479233 0.186856 1.08096 -0.901852 0.744455 
136 9.18615 8.7938 6.10707 -0.321677 -0.0637183 -0.124524 -1.3382 -0.482597 -0.37377 
55 16.9779 12.7543 6.08444 0.769291 0.0778501 0.134022 0.494904 -0.53575 -0.271728 
137 4.90868 13.5452 6.09765 0 0 0 0 0 0 
132 4.90868 11.0852 6.09765 0 0 0 0 0 0 
125 4.90868 8.62519 6.09765 0 0 0 0 0 0 
50 4.90868 16.0052 6.09765 0 0 0 0 0 0 
319 8.44396 24.7139 6.10861 0.320488 -0.340437 -0.0924683 -1.34423 2.44377 -0.547581 
318 7.04075 24.6741 6.06604 -0.551248 -0.578972 0.195098 1.33732 -1.04065 -0.219738 
332 15.5419 22.4105 6.04578 -0.221075 -0.206521 0.0579881 -0.273026 0.703571 -2.24282 
134 7.04251 9.91365 6.04112 -0.281545 0.816132 0.061996 0.977187 3.4878 -0.981136 
205 4.90868 20.9252 6.09765 0 0 0 0 0 0 
291 4.90868 23.3852 6.09765 0 0 0 0 0 0 
64 4.90868 18.4652 6.09765 0 0 0 0 0 0 
320 9.14996 23.4829 6.10828 0.174908 0.436455 0.247258 2.87568 -0.958157 -0.982712 
292 6.33374 23.427 6.10719 -0.110989 0.032105 -0.129054 -0.351029 1.01172 -1.11689 
56 19.1314 11.5859 6.07804 -0.188767 0.637429 0.028226 -0.514553 2.89183 0.560835 
196 19.112 14.0231 6.11258 0.164864 -0.36191 0.0276145 -1.33842 0.567581 -0.520236 
290 19.8294 15.2308 6.11937 -0.11799 0.372769 -0.122753 -0.202442 1.0942 -1.13275 
330 11.2797 24.7731 6.16362 -0.501368 -0.290212 -0.244008 0.207689 -0.670929 -1.01597 
786 19.0651 38.3173 6.06869 -0.44829 0.174489 0.0669241 -0.0588131 2.49429 1.86104 
269 17.6529 35.8477 6.08541 -0.840126 0.344873 0.151651 -1.09286 0.915479 -0.449051 
880 19.7813 39.5288 6.04175 -0.624675 0.721633 0.0789563 -1.74792 -0.373603 1.11967 
218 14.8054 30.9425 6.10765 0.0166206 0.0138035 -0.0826523 -2.03977 0.683874 -0.525661 
359 8.43193 29.6189 6.15283 -0.12514 -0.512634 -0.0507244 -0.0888341 0.094709 -1.37228 
263 14.7963 38.2632 6.08434 0.0436821 0.324511 0.162744 -0.883673 -0.558144 3.02335 
222 13.3905 30.9048 6.11758 -0.00874388 0.332081 -0.0507358 -0.831059 -0.634612 1.27841 
211 12.6822 29.6836 6.09667 -0.100332 -0.115247 0.162927 -0.457606 1.77892 -0.216173 
265 19.0582 35.8902 6.08961 0.422302 -0.0414407 -0.0231892 0.626226 0.0177428 0.352055 
252 17.647 33.4287 6.09514 -0.23357 -0.164285 -0.00276866 -0.19862 -2.46747 0.374759 
236 15.5103 32.1774 6.11531 0.627365 -0.556271 -0.0566504 1.28385 -1.81172 0.46704 
264 16.9254 37.0644 6.12382 0.135211 0.0405405 -0.0596499 0.035659 0.369862 -1.14683 
250 13.3799 35.7901 6.11944 0.301882 0.0691842 -0.0304766 -0.745567 -1.58303 -0.790838 
213 16.9352 27.3393 6.13656 -0.0327915 -0.936923 -0.105012 -1.80538 1.07261 1.14164 
879 17.6499 40.7336 6.05986 -0.389173 -0.267579 -0.141012 2.38122 2.89562 0.33262 
212 14.8124 28.484 6.07953 0.0308594 0.504283 0.131487 -1.67405 1.73497 0.39863 
223 15.5234 29.722 6.07715 -0.127064 0.154284 0.0154439 -0.980807 1.64715 2.59862 
277 9.14214 40.6495 6.12541 0.647536 -0.410586 -0.288119 0.871743 0.166877 -0.587667 
217 12.6731 32.125 6.13163 0.433626 0.138315 0.0431391 -1.64798 -0.400483 2.00314 
790 17.6502 38.2842 6.11727 -0.255977 0.285492 -0.152283 1.66296 -0.917886 0.445654 
384 7.02075 36.9396 6.12014 0.341143 0.0223862 -0.0487738 -1.49083 0.16643 2.02468 
232 16.935 32.2104 6.08366 -0.335623 -0.443535 0.0996477 -0.818176 -0.550936 -0.440314 
875 19.0598 40.7555 6.04046 0.282344 -0.46017 0.0487219 0.518228 -1.15987 1.4367 
896 19.7587 41.9803 6.03921 0.485045 0.180067 -0.0758489 -0.238478 -0.782236 1.89274 
785 16.9303 39.5063 6.08216 0.658713 0.00762086 0.060894 1.52165 -0.130241 0.448782 
789 15.5249 39.4839 6.09084 -0.673975 0.121054 -0.0171158 0.898653 1.10143 -0.507897 
260 6.32573 40.6249 6.11737 -0.303895 -0.406342 -0.00140122 -0.0666749 -1.87947 1.17884 
791 19.7735 37.1119 6.05798 0.0708146 -0.55738 0.0205081 -1.59371 0.732801 1.04107 
874 16.9392 41.9524 6.00339 -0.186831 -0.253258 0.151581 -0.17312 -3.19903 0.453423 
270 19.7797 34.6775 6.10764 0.209304 -0.040331 0.0891424 -0.279591 -0.0811412 0.391362 
374 9.12832 30.848 6.14445 0.568279 0.0625482 0.0831558 0.982605 1.77862 -0.345531 
365 15.5321 27.2685 6.13743 -0.780908 0.273685 -0.107917 0.919315 2.00853 1.15174 
274 6.31653 43.0878 6.09505 0.382509 -0.385107 -0.0236382 2.25856 0.693289 0.294177 
366 17.6468 26.119 6.13554 0.0674724 0.0217226 0.0668236 -2.71553 -0.0577827 -1.22719 
214 19.0603 26.1518 6.16232 -0.153818 0.152008 -0.206713 -0.255938 -0.140085 -2.04581 
225 19.7619 27.375 6.15204 0.182032 0.201532 -0.125974 -0.504142 1.7924 -1.9079 
231 14.8091 33.3886 6.13823 -0.416038 0.0914498 0.00489215 2.35245 -0.985104 3.80008 
878 15.5254 41.9328 6.02709 0.0283524 -0.00792421 0.0412941 -0.221911 -0.914843 -0.545556 
350 13.3887 26.041 6.10944 0.476757 -0.915279 0.1586 -0.384066 0.759417 1.88114 
799 9.1417 43.0904 6.09972 0.0627242 0.556288 -0.0312189 2.47252 0.878221 2.81393 
388 8.43771 39.4186 6.1416 -0.100027 0.0682755 -0.0322658 0.0165322 0.807327 -0.907292 
383 6.33151 38.1623 6.13394 -0.712691 0.316408 -0.0829478 0.518915 -1.12145 -1.49296 
275 7.02383 41.8508 6.08406 0.21121 0.572591 0.089164 1.56369 -0.315297 0.979954 
387 7.02791 39.3935 6.15469 -0.187382 0.346575 -0.113363 -1.17542 -1.30233 -0.148328 
370 4.90868 33.2252 6.09765 0 0 0 0 0 0 
356 4.90868 30.7652 6.09765 0 0 0 0 0 0 
336 4.90868 28.3052 6.09765 0 0 0 0 0 0 
316 4.90868 25.8452 6.09765 0 0 0 0 0 0 
349 11.2682 27.2026 6.11443 0.243731 0.928891 0.0576288 -1.92809 0.0172247 -0.186764 
371 6.31925 33.2658 6.07202 0.0734739 -0.105545 0.0887632 -0.896469 0.5672 0.519536 
339 8.43689 27.1707 6.09439 0.0833145 -0.654221 -0.0945143 0.406362 1.66581 -1.56444 
337 6.31868 28.3427 6.07369 -0.0593144 -0.139107 0.239709 2.6506 0.828122 0.819507 
340 9.15039 25.9431 6.10861 -0.16811 0.328984 -0.0466935 -0.124902 0.761915 1.37032 
358 7.01815 29.57 6.16728 0.352309 0.149347 -0.307586 -1.60774 1.31283 -1.08597 
276 8.44363 41.8697 6.08366 -0.516641 -0.0918239 0.0569885 -0.983344 -0.159105 -0.525189 
379 7.01499 34.5053 6.05423 0.599289 -0.542359 0.122414 -1.10868 0.429062 -0.0791043 
386 9.15132 35.7459 6.07086 -0.301109 -0.184446 0.199549 -1.52292 -1.72497 -1.42735 
385 8.43189 36.9577 6.11929 0.160479 0.251425 -0.0551127 0.842147 0.93832 -2.01234 
377 4.90868 35.6852 6.09765 0 0 0 0 0 0 
382 4.90868 38.1452 6.09765 0 0 0 0 0 0 
378 6.317 35.7222 6.09557 -0.229964 -0.188534 -0.0358127 -0.594508 0.520941 2.03968 
380 8.43842 34.5151 6.06519 -0.352075 0.599147 -0.0103591 -0.0506377 0.114043 1.52811 
259 4.90868 40.6052 6.09765 0 0 0 0 0 0 
273 4.90868 43.0652 6.09765 0 0 0 0 0 0 
363 11.2672 29.6504 6.14103 -0.0264216 0.0857917 -0.224159 0.452814 2.23969 0.606028 
229 10.5616 35.7714 6.11437 -0.0832878 -0.020676 -0.101397 0.638691 -1.44382 -0.340231 
249 11.2635 37.0014 6.10998 -0.12861 0.0983842 -0.0608868 -3.11055 -1.07669 -0.508174 
787 11.2743 41.8971 6.11619 -0.433477 -0.0869996 -0.502869 0.881796 0.299951 -1.30418 
262 12.6778 39.4435 6.07327 0.634126 0.922744 0.12402 1.42785 0.0177673 -1.59985 
267 13.383 38.2307 6.09975 0.383727 0.0340186 -0.0589261 1.92455 -0.610881 -1.61779 
783 12.6857 41.917 6.0837 0.306591 -0.464606 0.134768 -2.84108 -1.03523 -1.7221 
210 10.5498 30.8648 6.1322 0.00891578 0.479105 0.0817841 -0.352619 1.32813 1.30407 
360 9.14137 28.3944 6.10502 0.015153 0.338773 0.142198 -2.32035 -1.84314 -1.4957 
788 13.3952 40.6827 6.11063 -0.270051 0.00176468 -0.238497 -2.29639 -1.3611 0.898313 
216 10.5482 33.3195 6.09827 0.521862 0.170373 0.137373 1.62791 -1.30498 -0.275076 
338 7.02559 27.1206 6.05256 0.0592787 0.202517 0.190593 -1.22279 0.204221 -1.09562 
220 19.0478 28.5925 6.10407 0.263812 -0.150049 0.102781 -0.701541 -0.768802 0.845967 
266 11.2788 39.4382 6.06684 -0.82044 0.0587806 -0.00445153 1.25049 0.319396 -0.234635 
246 14.7956 35.8191 6.11406 -0.0440129 0.384194 0.0822065 -1.46683 2.58813 -1.38748 
247 16.9211 34.6341 6.08682 0.56135 0.2727 0.137671 -0.33264 -1.04303 -2.09069 
233 19.0579 31.0304 6.036 0.578116 -0.304711 0.269975 0.623552 -0.415376 0.0440852 
245 12.6791 37.0082 6.10435 -0.311647 0.148906 0.058162 0.621554 0.499461 -2.84848 
261 10.569 40.6567 6.03605 -0.288191 0.633568 0.501742 -2.29074 -1.48392 -1.30902 
268 15.5014 37.0513 6.12809 0.513987 -0.579852 -0.0864643 0.333552 -0.52214 -0.677172 
238 19.7771 29.8086 6.09506 -0.297136 0.24782 -0.149371 -2.36807 -0.643753 0.869075 
244 10.5451 38.2293 6.09186 0.304338 -0.744471 0.103601 -1.06405 -2.78355 1.53849 
389 9.12818 38.1921 6.12914 0.521513 0.0485091 -0.0205215 -0.0887396 -0.534411 -1.18008 