ITEM: TIMESTEP
8500
ITEM: NUMBER OF ATOMS
4798
ITEM: BOX BOUNDS ff ff ff
-10.3577 110.358
-10.0998 131.9
-100.402 112.598
ITEM: ATOMS id x y z fx fy fz vx vy vz 
72 -0.062301 2.4752 6.09765 0 0 0 0 0 0 
110 4.19854 7.39519 6.09765 0 0 0 0 0 0 
109 2.77826 7.39519 6.09765 0 0 0 0 0 0 
93 4.19854 4.9352 6.09765 0 0 0 0 0 0 
92 2.77826 4.9352 6.09765 0 0 0 0 0 0 
91 2.06812 6.16519 6.09765 0 0 0 0 0 0 
87 0.647839 6.16519 6.09765 0 0 0 0 0 0 
86 -0.062301 7.39519 6.09765 0 0 0 0 0 0 
81 4.19854 2.4752 6.09765 0 0 0 0 0 0 
80 2.77826 2.4752 6.09765 0 0 0 0 0 0 
79 2.06812 3.7052 6.09765 0 0 0 0 0 0 
78 0.647839 3.7052 6.09765 0 0 0 0 0 0 
77 -0.062301 4.9352 6.09765 0 0 0 0 0 0 
76 4.19854 0.015197 6.09765 0 0 0 0 0 0 
75 2.77826 0.015197 6.09765 0 0 0 0 0 0 
74 2.06812 1.2452 6.09765 0 0 0 0 0 0 
73 0.647839 1.2452 6.09765 0 0 0 0 0 0 
6 -0.062301 12.3152 6.09765 0 0 0 0 0 0 
131 4.19854 12.3152 6.09765 0 0 0 0 0 0 
130 2.77826 12.3152 6.09765 0 0 0 0 0 0 
124 4.19854 9.85519 6.09765 0 0 0 0 0 0 
123 2.77826 9.85519 6.09765 0 0 0 0 0 0 
122 2.06812 11.0852 6.09765 0 0 0 0 0 0 
117 0.647839 11.0852 6.09765 0 0 0 0 0 0 
108 2.06812 8.62519 6.09765 0 0 0 0 0 0 
100 0.647839 8.62519 6.09765 0 0 0 0 0 0 
99 -0.062301 9.85519 6.09765 0 0 0 0 0 0 
34 4.19854 14.7752 6.09765 0 0 0 0 0 0 
33 2.77826 14.7752 6.09765 0 0 0 0 0 0 
32 2.06812 16.0052 6.09765 0 0 0 0 0 0 
31 0.647839 16.0052 6.09765 0 0 0 0 0 0 
19 2.06812 13.5452 6.09765 0 0 0 0 0 0 
18 0.647839 13.5452 6.09765 0 0 0 0 0 0 
17 -0.062301 14.7752 6.09765 0 0 0 0 0 0 
300 4.19854 24.6152 6.09765 0 0 0 0 0 0 
299 2.77826 24.6152 6.09765 0 0 0 0 0 0 
204 4.19854 22.1552 6.09765 0 0 0 0 0 0 
203 2.77826 22.1552 6.09765 0 0 0 0 0 0 
202 2.06812 23.3852 6.09765 0 0 0 0 0 0 
191 0.647839 23.3852 6.09765 0 0 0 0 0 0 
190 -0.062301 24.6152 6.09765 0 0 0 0 0 0 
71 2.06812 20.9252 6.09765 0 0 0 0 0 0 
70 0.647839 20.9252 6.09765 0 0 0 0 0 0 
69 -0.062301 22.1552 6.09765 0 0 0 0 0 0 
63 4.19854 19.6952 6.09765 0 0 0 0 0 0 
62 2.77826 19.6952 6.09765 0 0 0 0 0 0 
49 4.19854 17.2352 6.09765 0 0 0 0 0 0 
48 2.77826 17.2352 6.09765 0 0 0 0 0 0 
47 2.06812 18.4652 6.09765 0 0 0 0 0 0 
46 0.647839 18.4652 6.09765 0 0 0 0 0 0 
45 -0.062301 19.6952 6.09765 0 0 0 0 0 0 
30 -0.062301 17.2352 6.09765 0 0 0 0 0 0 
355 4.19854 31.9952 6.09765 0 0 0 0 0 0 
354 2.77826 31.9952 6.09765 0 0 0 0 0 0 
353 2.06812 33.2252 6.09765 0 0 0 0 0 0 
344 0.647839 33.2252 6.09765 0 0 0 0 0 0 
335 4.19854 29.5352 6.09765 0 0 0 0 0 0 
334 2.77826 29.5352 6.09765 0 0 0 0 0 0 
333 2.06812 30.7652 6.09765 0 0 0 0 0 0 
326 0.647839 30.7652 6.09765 0 0 0 0 0 0 
325 -0.062301 31.9952 6.09765 0 0 0 0 0 0 
315 4.19854 27.0752 6.09765 0 0 0 0 0 0 
314 2.77826 27.0752 6.09765 0 0 0 0 0 0 
313 2.06812 28.3052 6.09765 0 0 0 0 0 0 
308 0.647839 28.3052 6.09765 0 0 0 0 0 0 
307 -0.062301 29.5352 6.09765 0 0 0 0 0 0 
298 2.06812 25.8452 6.09765 0 0 0 0 0 0 
297 0.647839 25.8452 6.09765 0 0 0 0 0 0 
296 -0.062301 27.0752 6.09765 0 0 0 0 0 0 
215 -0.062301 36.9152 6.09765 0 0 0 0 0 0 
376 4.19854 36.9152 6.09765 0 0 0 0 0 0 
375 2.77826 36.9152 6.09765 0 0 0 0 0 0 
369 4.19854 34.4552 6.09765 0 0 0 0 0 0 
368 2.77826 34.4552 6.09765 0 0 0 0 0 0 
367 2.06812 35.6852 6.09765 0 0 0 0 0 0 
362 0.647839 35.6852 6.09765 0 0 0 0 0 0 
343 -0.062301 34.4552 6.09765 0 0 0 0 0 0 
258 4.19854 41.8352 6.09765 0 0 0 0 0 0 
257 2.77826 41.8352 6.09765 0 0 0 0 0 0 
256 2.06812 43.0652 6.09765 0 0 0 0 0 0 
255 0.647839 43.0652 6.09765 0 0 0 0 0 0 
243 4.19854 39.3752 6.09765 0 0 0 0 0 0 
242 2.77826 39.3752 6.09765 0 0 0 0 0 0 
241 2.06812 40.6052 6.09765 0 0 0 0 0 0 
240 0.647839 40.6052 6.09765 0 0 0 0 0 0 
239 -0.062301 41.8352 6.09765 0 0 0 0 0 0 
228 2.06812 38.1452 6.09765 0 0 0 0 0 0 
227 0.647839 38.1452 6.09765 0 0 0 0 0 0 
226 -0.062301 39.3752 6.09765 0 0 0 0 0 0 
254 -0.062301 44.2952 6.09765 0 0 0 0 0 0 
905 4.19854 51.6752 6.09765 0 0 0 0 0 0 
904 2.77826 51.6752 6.09765 0 0 0 0 0 0 
890 4.19854 49.2152 6.09765 0 0 0 0 0 0 
889 2.77826 49.2152 6.09765 0 0 0 0 0 0 
888 2.06812 50.4452 6.09765 0 0 0 0 0 0 
887 0.647839 50.4452 6.09765 0 0 0 0 0 0 
886 -0.062301 51.6752 6.09765 0 0 0 0 0 0 
794 4.19854 46.7552 6.09765 0 0 0 0 0 0 
793 2.77826 46.7552 6.09765 0 0 0 0 0 0 
792 2.06812 47.9852 6.09765 0 0 0 0 0 0 
781 0.647839 47.9852 6.09765 0 0 0 0 0 0 
780 -0.062301 49.2152 6.09765 0 0 0 0 0 0 
280 2.06812 45.5252 6.09765 0 0 0 0 0 0 
279 0.647839 45.5252 6.09765 0 0 0 0 0 0 
278 -0.062301 46.7552 6.09765 0 0 0 0 0 0 
272 4.19854 44.2952 6.09765 0 0 0 0 0 0 
271 2.77826 44.2952 6.09765 0 0 0 0 0 0 
959 4.19854 59.0552 6.09765 0 0 0 0 0 0 
958 2.77826 59.0552 6.09765 0 0 0 0 0 0 
957 2.06812 60.2852 6.09765 0 0 0 0 0 0 
952 0.647839 60.2852 6.09765 0 0 0 0 0 0 
945 4.19854 56.5952 6.09765 0 0 0 0 0 0 
944 2.77826 56.5952 6.09765 0 0 0 0 0 0 
943 2.06812 57.8252 6.09765 0 0 0 0 0 0 
934 0.647839 57.8252 6.09765 0 0 0 0 0 0 
933 -0.062301 59.0552 6.09765 0 0 0 0 0 0 
925 4.19854 54.1352 6.09765 0 0 0 0 0 0 
924 2.77826 54.1352 6.09765 0 0 0 0 0 0 
923 2.06812 55.3652 6.09765 0 0 0 0 0 0 
916 0.647839 55.3652 6.09765 0 0 0 0 0 0 
915 -0.062301 56.5952 6.09765 0 0 0 0 0 0 
903 2.06812 52.9052 6.09765 0 0 0 0 0 0 
898 0.647839 52.9052 6.09765 0 0 0 0 0 0 
897 -0.062301 54.1352 6.09765 0 0 0 0 0 0 
805 -0.062301 61.5152 6.09765 0 0 0 0 0 0 
966 4.19854 61.5152 6.09765 0 0 0 0 0 0 
965 2.77826 61.5152 6.09765 0 0 0 0 0 0 
862 4.19854 68.8952 6.09765 0 0 0 0 0 0 
861 2.77826 68.8952 6.09765 0 0 0 0 0 0 
848 4.19854 66.4352 6.09765 0 0 0 0 0 0 
847 2.77826 66.4352 6.09765 0 0 0 0 0 0 
846 2.06812 67.6652 6.09765 0 0 0 0 0 0 
845 0.647839 67.6652 6.09765 0 0 0 0 0 0 
844 -0.062301 68.8952 6.09765 0 0 0 0 0 0 
833 4.19854 63.9752 6.09765 0 0 0 0 0 0 
832 2.77826 63.9752 6.09765 0 0 0 0 0 0 
831 2.06812 65.2052 6.09765 0 0 0 0 0 0 
830 0.647839 65.2052 6.09765 0 0 0 0 0 0 
829 -0.062301 66.4352 6.09765 0 0 0 0 0 0 
818 2.06812 62.7452 6.09765 0 0 0 0 0 0 
817 0.647839 62.7452 6.09765 0 0 0 0 0 0 
816 -0.062301 63.9752 6.09765 0 0 0 0 0 0 
1828 4.19854 76.2752 6.09765 0 0 0 0 0 0 
1827 2.77826 76.2752 6.09765 0 0 0 0 0 0 
1826 2.06812 77.5052 6.09765 0 0 0 0 0 0 
1821 0.647839 77.5052 6.09765 0 0 0 0 0 0 
1813 4.19854 73.8152 6.09765 0 0 0 0 0 0 
1812 2.77826 73.8152 6.09765 0 0 0 0 0 0 
1811 2.06812 75.0452 6.09765 0 0 0 0 0 0 
1810 0.647839 75.0452 6.09765 0 0 0 0 0 0 
1809 -0.062301 76.2752 6.09765 0 0 0 0 0 0 
1717 4.19854 71.3552 6.09765 0 0 0 0 0 0 
1716 2.77826 71.3552 6.09765 0 0 0 0 0 0 
1715 2.06812 72.5852 6.09765 0 0 0 0 0 0 
1704 0.647839 72.5852 6.09765 0 0 0 0 0 0 
1703 -0.062301 73.8152 6.09765 0 0 0 0 0 0 
870 2.06812 70.1252 6.09765 0 0 0 0 0 0 
869 0.647839 70.1252 6.09765 0 0 0 0 0 0 
868 -0.062301 71.3552 6.09765 0 0 0 0 0 0 
1728 -0.062301 86.1152 6.09765 0 0 0 0 0 0 
1889 4.19854 86.1152 6.09765 0 0 0 0 0 0 
1888 2.77826 86.1152 6.09765 0 0 0 0 0 0 
1882 4.19854 83.6552 6.09765 0 0 0 0 0 0 
1881 2.77826 83.6552 6.09765 0 0 0 0 0 0 
1880 2.06812 84.8852 6.09765 0 0 0 0 0 0 
1875 0.647839 84.8852 6.09765 0 0 0 0 0 0 
1868 4.19854 81.1952 6.09765 0 0 0 0 0 0 
1867 2.77826 81.1952 6.09765 0 0 0 0 0 0 
1866 2.06812 82.4252 6.09765 0 0 0 0 0 0 
1857 0.647839 82.4252 6.09765 0 0 0 0 0 0 
1856 -0.062301 83.6552 6.09765 0 0 0 0 0 0 
1848 4.19854 78.7352 6.09765 0 0 0 0 0 0 
1847 2.77826 78.7352 6.09765 0 0 0 0 0 0 
1846 2.06812 79.9652 6.09765 0 0 0 0 0 0 
1839 0.647839 79.9652 6.09765 0 0 0 0 0 0 
1838 -0.062301 81.1952 6.09765 0 0 0 0 0 0 
1820 -0.062301 78.7352 6.09765 0 0 0 0 0 0 
1741 2.06812 87.3452 6.09765 0 0 0 0 0 0 
1740 0.647839 87.3452 6.09765 0 0 0 0 0 0 
2677 4.19854 95.9552 6.09765 0 0 0 0 0 0 
2676 2.77826 95.9552 6.09765 0 0 0 0 0 0 
1793 2.06812 94.7252 6.09765 0 0 0 0 0 0 
1792 0.647839 94.7252 6.09765 0 0 0 0 0 0 
1791 -0.062301 95.9552 6.09765 0 0 0 0 0 0 
1785 4.19854 93.4952 6.09765 0 0 0 0 0 0 
1784 2.77826 93.4952 6.09765 0 0 0 0 0 0 
1771 4.19854 91.0352 6.09765 0 0 0 0 0 0 
1770 2.77826 91.0352 6.09765 0 0 0 0 0 0 
1769 2.06812 92.2652 6.09765 0 0 0 0 0 0 
1768 0.647839 92.2652 6.09765 0 0 0 0 0 0 
1767 -0.062301 93.4952 6.09765 0 0 0 0 0 0 
1756 4.19854 88.5752 6.09765 0 0 0 0 0 0 
1755 2.77826 88.5752 6.09765 0 0 0 0 0 0 
1754 2.06812 89.8052 6.09765 0 0 0 0 0 0 
1753 0.647839 89.8052 6.09765 0 0 0 0 0 0 
1752 -0.062301 91.0352 6.09765 0 0 0 0 0 0 
1739 -0.062301 88.5752 6.09765 0 0 0 0 0 0 
2663 -0.062301 98.4152 6.09765 0 0 0 0 0 0 
2808 4.19854 103.335 6.09765 0 0 0 0 0 0 
2807 2.77826 103.335 6.09765 0 0 0 0 0 0 
2806 2.06812 104.565 6.09765 0 0 0 0 0 0 
2799 0.647839 104.565 6.09765 0 0 0 0 0 0 
2788 4.19854 100.875 6.09765 0 0 0 0 0 0 
2787 2.77826 100.875 6.09765 0 0 0 0 0 0 
2786 2.06812 102.105 6.09765 0 0 0 0 0 0 
2781 0.647839 102.105 6.09765 0 0 0 0 0 0 
2780 -0.062301 103.335 6.09765 0 0 0 0 0 0 
2773 4.19854 98.4152 6.09765 0 0 0 0 0 0 
2772 2.77826 98.4152 6.09765 0 0 0 0 0 0 
2771 2.06812 99.6452 6.09765 0 0 0 0 0 0 
2770 0.647839 99.6452 6.09765 0 0 0 0 0 0 
2769 -0.062301 100.875 6.09765 0 0 0 0 0 0 
2675 2.06812 97.1852 6.09765 0 0 0 0 0 0 
2664 0.647839 97.1852 6.09765 0 0 0 0 0 0 
2849 4.19854 110.715 6.09765 0 0 0 0 0 0 
2848 2.77826 110.715 6.09765 0 0 0 0 0 0 
2842 4.19854 108.255 6.09765 0 0 0 0 0 0 
2841 2.77826 108.255 6.09765 0 0 0 0 0 0 
2840 2.06812 109.485 6.09765 0 0 0 0 0 0 
2835 0.647839 109.485 6.09765 0 0 0 0 0 0 
2828 4.19854 105.795 6.09765 0 0 0 0 0 0 
2827 2.77826 105.795 6.09765 0 0 0 0 0 0 
2826 2.06812 107.025 6.09765 0 0 0 0 0 0 
2817 0.647839 107.025 6.09765 0 0 0 0 0 0 
2816 -0.062301 108.255 6.09765 0 0 0 0 0 0 
2798 -0.062301 105.795 6.09765 0 0 0 0 0 0 
2716 4.19854 113.175 6.09765 0 0 0 0 0 0 
2715 2.77826 113.175 6.09765 0 0 0 0 0 0 
2701 2.06812 111.945 6.09765 0 0 0 0 0 0 
2700 0.647839 111.945 6.09765 0 0 0 0 0 0 
2699 -0.062301 113.175 6.09765 0 0 0 0 0 0 
2688 -0.062301 110.715 6.09765 0 0 0 0 0 0 
2712 -0.062301 115.635 6.09765 0 0 0 0 0 0 
3636 4.19854 120.555 6.09765 0 0 0 0 0 0 
3635 2.77826 120.555 6.09765 0 0 0 0 0 0 
3634 2.06812 121.785 6.09765 0 0 0 0 0 0 
3623 0.647839 121.785 6.09765 0 0 0 0 0 0 
2753 2.06812 119.325 6.09765 0 0 0 0 0 0 
2752 0.647839 119.325 6.09765 0 0 0 0 0 0 
2751 -0.062301 120.555 6.09765 0 0 0 0 0 0 
2745 4.19854 118.095 6.09765 0 0 0 0 0 0 
2744 2.77826 118.095 6.09765 0 0 0 0 0 0 
2731 4.19854 115.635 6.09765 0 0 0 0 0 0 
2730 2.77826 115.635 6.09765 0 0 0 0 0 0 
2729 2.06812 116.865 6.09765 0 0 0 0 0 0 
2728 0.647839 116.865 6.09765 0 0 0 0 0 0 
2727 -0.062301 118.095 6.09765 0 0 0 0 0 0 
2714 2.06812 114.405 6.09765 0 0 0 0 0 0 
2713 0.647839 114.405 6.09765 0 0 0 0 0 0 
85 8.55352 0.32785 5.91959 0.0860473 0.0315246 -0.0614205 1.68476 0.437493 1.54173 
24 19.1688 6.76593 5.94447 0.684229 0.290816 0.189246 0.838864 -1.99947 0.0564285 
95 6.33492 3.80792 6.12278 0.609602 -0.911663 -0.169335 1.3118 -0.0760679 0.833398 
114 8.49104 5.12983 6.07491 -0.0460336 0.202319 0.0797269 -0.942879 -0.182797 -0.510507 
2 12.8012 5.32422 6.00722 -0.629126 0.464967 -0.0804817 -0.45108 0.66738 1.46636 
113 7.06562 5.02625 6.09716 0.0346521 1.10287 0.0364231 -1.24468 -1.45523 0.0207555 
13 13.5121 6.55227 5.99224 -0.620945 0.300593 0.0944305 1.15721 1.41415 -0.336745 
28 17.7671 6.70831 5.96138 -0.0506436 0.18516 -0.0302296 -1.59983 -1.17215 -0.150231 
98 9.30419 1.52012 6.0081 0.49406 -0.0291105 0.127575 2.4239 -0.47227 2.39083 
97 8.53365 2.70798 6.06716 0.119389 -0.0841125 0.00218705 -2.27657 -0.455025 -2.19511 
96 7.09878 2.59672 6.10065 -1.09927 0.921938 0.0937419 2.25522 -0.149591 -0.636263 
115 9.23723 3.94087 6.08544 0.506413 -0.200782 -0.211217 -0.862343 -1.74739 -0.0169932 
89 12.9004 0.53898 6.19037 0.232868 -0.162519 0.0390852 -0.0487166 0.765861 -0.653088 
5 19.2708 1.95261 5.48401 -0.187958 0.778404 0.414265 0.110295 0.856304 -2.31247 
119 13.5383 4.13923 5.97713 0.485077 -0.476143 -0.118827 -0.617829 0.589537 -0.13334 
11 19.2251 4.3515 5.85563 0.375702 0.179292 0.0993886 -0.405653 -2.01647 -0.724685 
14 15.6616 5.4345 5.94978 0.0238528 -0.304942 0.077262 -1.32946 -1.51395 -1.20223 
120 15.7176 3.02075 5.89038 -0.16391 -0.137358 -0.0950746 -0.971264 1.59653 -0.158939 
15 17.8215 4.31252 5.90297 0.0590945 -0.100189 -0.00862218 -0.973012 -0.119649 -0.0846624 
3 14.9611 4.20557 5.91724 -0.0588398 0.133843 0.192958 1.07164 -0.430537 -1.44936 
83 6.35125 1.36681 6.10545 -0.141606 -0.3922 -0.0554953 2.27414 1.17325 1.03531 
88 10.7151 1.584 6.05095 -0.507094 0.770926 -0.21372 -0.590238 1.24265 0.915494 
10 17.0764 5.492 5.95848 -0.353225 -0.117421 -0.147953 1.01179 -1.00169 -1.48381 
105 11.4146 2.82989 5.99812 0.211167 -0.121506 -0.00772239 -1.29101 -0.879745 2.42445 
102 12.8498 2.90075 5.96881 -0.190408 0.657604 0.186369 0.0273872 0.880075 0.582661 
106 13.6249 1.72889 6.00872 0.210277 -0.159595 -0.0399496 -0.522275 -0.76696 -0.901513 
90 11.5393 0.451998 6.06797 -0.013742 -0.334641 0.0236686 1.57978 0.564779 3.18224 
9 14.9229 6.62423 5.98287 -0.350025 -0.475341 -0.0973682 0.351428 -0.979618 -1.1351 
94 4.90868 3.7052 6.09765 0 0 0 0 0 0 
111 4.90868 6.16519 6.09765 0 0 0 0 0 0 
82 4.90868 1.2452 6.09765 0 0 0 0 0 0 
121 17.8944 1.91451 5.71927 0.376381 -0.526932 0.0554055 0.649313 0.149108 -0.383692 
107 15.8184 0.645195 5.78415 0.0990778 -0.417482 -0.0638245 0.143849 -0.469048 -2.55651 
84 7.1914 0.223964 6.10215 -0.0605472 -0.0458857 0.00154955 -1.65646 1.37271 1.89383 
4 17.1453 3.09154 5.84786 -0.732574 0.0519798 -0.0650606 1.04277 0.0992175 -1.25878 
104 17.1784 0.722992 5.92239 0.259496 -0.227708 -0.0400319 -1.37636 0.20458 -0.256803 
103 15.0149 1.7816 5.90265 -0.0927352 0.72625 0.0204757 -1.21284 0.365334 -1.92544 
129 9.21004 6.36682 6.07448 -0.266428 -0.195909 -0.0564751 -0.15436 -0.111409 -0.162961 
1 10.6325 6.43722 6.03809 -0.366686 0.803192 0.0939368 1.71824 0.235938 -1.86759 
112 6.3352 6.25127 6.11098 -0.0230042 -0.5603 -0.0939834 0.123817 0.402388 -2.80016 
128 8.46955 7.57007 6.09523 0.00670309 -0.264936 -0.0949061 1.06161 0.953451 0.456186 
127 7.04764 7.49087 6.094 0.122649 -0.0576018 0.0488783 0.955358 0.630128 1.36165 
118 11.3705 5.25958 6.02725 0.69076 -0.968289 0.00808677 -0.0639673 0.479491 1.35932 
101 10.6709 4.02274 6.024 -0.554829 0.117749 0.103823 -1.30229 -0.57235 -0.39252 
201 19.8069 12.8056 6.04473 0.0311111 0.314235 -0.0119205 -0.894701 -1.22143 -0.218441 
290 19.7991 15.2254 6.0825 -0.106066 0.35575 0.226285 0.652444 1.73538 0.074484 
68 9.1698 16.1224 6.07625 -0.349359 0.280335 0.0650611 -1.9954 0.534509 -0.987303 
35 10.576 13.7503 6.10999 -0.391389 0.134465 0.108788 -0.825976 -0.548266 2.23573 
144 9.16101 13.6884 6.11556 0.176892 -0.760492 0.0173858 -0.704583 -0.120358 1.43617 
143 8.45169 14.8899 6.11192 -0.460866 0.633199 -0.127761 0.228472 -0.134461 -0.221611 
142 7.03096 14.8389 6.10934 0.405833 -0.119942 -0.0875338 -0.477195 0.435506 0.305378 
194 14.8226 16.317 6.17422 -0.627129 0.432748 -0.0582349 -0.114569 -1.48113 -1.62832 
198 13.4018 16.2694 6.1527 0.389101 -0.25929 -0.0374287 0.0274367 -0.402422 1.60242 
27 15.6186 7.83271 5.96376 0.0741028 0.982542 0.134133 0.0445363 4.8745 -1.47641 
36 12.7016 12.5935 6.08668 -0.154241 0.654627 0.0547994 0.0719704 1.08095 -1.84477 
58 13.4121 13.8207 6.12124 -0.173625 0.24505 0.159926 1.35598 0.862413 -1.13879 
138 6.31241 13.6083 6.11052 0.597448 -0.266068 0.0868894 -1.23293 1.05848 3.03971 
52 10.5836 16.1816 6.11062 -0.425268 0.529806 -0.126868 -0.213158 3.67448 0.578077 
57 11.2852 14.9728 6.14583 0.487853 0.0173464 -0.127316 0.554398 2.07905 2.18443 
23 17.0306 7.89652 5.9498 -0.111201 0.42096 0.0599293 0.413287 -3.20944 -1.33695 
43 17.727 9.12879 5.96042 0.0276544 -0.288816 0.0514763 0.0897635 1.59002 -1.99269 
42 15.5689 10.2588 6.01138 0.528716 0.576993 0.000982689 1.53135 -2.67305 -0.304855 
285 19.0732 16.4408 6.1076 -0.156228 -1.11492 0.150611 -0.528853 0.295516 1.57182 
26 13.4589 8.97593 6.02472 0.334426 0.155419 -0.110173 -0.112544 -1.35304 1.72544 
22 14.8791 9.03569 6.00843 -0.337857 -0.392041 -0.127987 -2.28294 1.36157 -0.517895 
53 12.6991 15.038 6.14327 -0.13657 -0.343663 0.00355383 -0.549203 -1.31737 -0.892354 
306 19.7944 17.6415 6.14431 0.358393 0.304784 -0.179383 -0.276953 0.126654 -1.33869 
192 10.5766 18.6334 6.06342 -0.397699 0.272277 0.0498273 -0.0165104 0.339426 0.14801 
283 14.8227 18.7593 6.07987 0.00182876 -0.099612 0.169876 -4.29539 -0.233226 -1.89733 
282 12.6884 19.9181 6.0894 0.326314 -0.555283 -0.07376 -0.335971 1.24197 0.720515 
351 15.516 24.857 6.02584 0.32354 -0.051289 0.0139237 -0.184787 -2.78992 1.228 
312 13.399 21.1361 6.05844 -0.0862774 0.528124 0.0488077 0.608535 1.28499 -0.514544 
209 9.16042 18.5773 6.05615 0.116625 0.385184 -0.0816449 0.294626 -0.335257 -0.30351 
287 13.4157 18.6995 6.10413 -0.741391 0.285898 -0.118838 -1.14312 -0.0427174 -0.942434 
342 19.7898 22.5014 6.04384 -0.608844 0.0308651 -0.112319 1.52829 0.578136 -0.292119 
67 8.45252 17.3461 6.0336 -0.030963 -0.202595 0.15356 1.25263 -1.51525 -0.658541 
301 14.8135 21.1943 6.04519 -0.624597 -0.2124 0.0497144 1.53878 1.24075 -0.999269 
324 19.7854 20.0636 6.05253 -0.222689 -0.152113 0.129557 -2.08799 2.03462 -0.94773 
193 12.6867 17.4761 6.09736 0.58987 0.230044 0.140529 -1.47716 1.21537 -0.814685 
197 11.2834 17.4243 6.0833 -0.159195 -0.519757 0.0291399 0.809542 0.91822 -1.40411 
304 15.5263 19.9881 6.05846 0.397542 -0.375392 -0.00801492 2.55382 1.36527 -0.118602 
305 17.6598 18.8058 6.10954 -0.326694 0.193689 0.101959 0.631761 0.386511 -0.172033 
329 14.8076 23.6325 6.04898 -0.648296 -0.137654 0.0574802 -0.145038 -0.502509 1.27631 
303 19.0687 18.8411 6.12358 0.301164 0.572308 -0.0981078 1.08816 -1.25859 -0.749261 
288 15.5321 17.5481 6.1365 0.0427678 -0.363645 0.0847908 -1.78259 0.807068 -1.18752 
284 16.9428 17.5821 6.15414 -0.0950691 0.397901 -0.145587 0.709417 -1.64014 -0.0795626 
322 19.073 21.2748 6.04819 -0.367 0.46068 -0.0288222 0.357852 -0.753639 0.220653 
302 16.9433 20.0277 6.07422 -0.0260104 -0.32255 -0.0590655 -0.106089 2.68742 -0.330035 
330 11.2705 24.7505 6.05595 -0.546515 0.390293 0.156422 1.42535 0.471183 0.48688 
331 13.3854 23.5823 6.06788 0.414971 -0.0333986 -0.0965452 0.155365 -0.12408 1.43476 
295 9.15479 21.0411 6.07636 0.070179 -0.381904 0.0654231 1.48266 -0.158365 -1.62005 
309 10.5463 23.5358 6.08742 0.434669 -0.463166 0.0524981 -1.6756 0.901812 -0.255123 
328 12.6754 24.7962 6.06472 0.261885 0.286415 -0.108426 1.32587 0.893613 -0.743115 
311 11.269 22.3146 6.08611 -0.502933 0.113583 -0.161126 1.40289 -0.0500811 1.413 
207 7.03733 19.7451 6.08587 -0.321072 0.300718 -0.0675394 0.734968 2.57626 2.22739 
310 12.6715 22.3512 6.04847 0.784734 0.170885 0.184451 -2.21751 -1.28542 0.532238 
281 10.5693 21.0841 6.07469 -0.291765 -0.0547009 0.0401485 2.74724 1.23791 -0.643121 
137 4.90868 13.5452 6.09765 0 0 0 0 0 0 
132 4.90868 11.0852 6.09765 0 0 0 0 0 0 
125 4.90868 8.62519 6.09765 0 0 0 0 0 0 
50 4.90868 16.0052 6.09765 0 0 0 0 0 0 
126 6.31762 8.70183 6.08543 0.50626 -0.180626 0.151787 -0.812244 -0.985069 -1.6373 
133 6.32271 11.1406 6.12526 -0.204206 0.54054 -0.0193607 -1.04521 -1.15588 -0.191133 
135 8.43982 10.015 6.08968 1.19536 -0.985901 0.0607091 2.0893 -2.95134 0.303292 
134 7.03604 9.93226 6.12282 -0.231444 -0.0450528 -0.167775 0.00130525 -1.24791 -1.7065 
51 6.33405 16.0604 6.06982 -0.631779 -0.0146178 0.114122 -1.11125 -1.02635 0.850076 
139 7.02721 12.3845 6.13408 0.238964 0.0473713 -0.11217 0.255664 0.106275 -1.81129 
21 12.7274 10.1758 6.03398 -0.177701 0.103203 0.0809675 0.701324 1.54073 0.262922 
40 11.287 12.5481 6.10302 0.166417 -0.761644 -0.0530676 0.940529 -1.02152 -0.241598 
37 14.837 11.4685 6.06364 0.171671 -0.734046 -0.0868734 0.735617 1.05949 -0.562356 
54 14.8203 13.8708 6.16594 -0.117027 1.04324 -0.170161 0.0202015 2.66143 0.134457 
200 17.6567 13.9623 6.08928 0.57186 -0.533504 -0.116817 -0.426539 -0.668884 0.910036 
55 16.9559 12.7327 6.03537 -0.24381 0.509551 0.268945 -1.74187 -2.5249 0.176436 
196 19.0787 14.0105 6.06492 -0.108719 -0.0477868 0.0575537 -0.640739 0.104189 -0.373456 
136 9.18736 8.79355 6.08656 -0.452936 0.771744 -0.0130658 -0.816548 -1.06513 1.46587 
12 11.3467 7.66524 6.05201 -0.253444 0.295319 -0.131887 0.755154 -0.598051 -1.73331 
59 15.5385 12.6849 6.09035 0.830762 -0.462503 -0.0315869 0.571914 0.786911 -0.0332077 
25 11.3091 10.1176 6.06382 0.291061 -0.92962 -0.00455059 1.36129 0.413868 -0.788263 
7 10.6088 8.86956 6.07003 -0.155697 0.253247 -0.00402954 -1.26125 -0.937639 -1.38321 
60 17.69 11.5413 6.02361 0.093279 -0.00217817 -0.161886 -1.54014 -0.482684 1.50387 
8 12.7587 7.7561 6.00695 0.276127 -0.89576 0.0726729 -0.648649 -1.13361 0.822737 
38 16.9907 10.323 5.97924 -0.470649 -0.185508 0.0911775 0.205971 -0.532531 1.50222 
141 9.17329 11.2301 6.08405 -0.596594 0.517204 0.137385 -0.517438 3.61305 -0.00348459 
20 10.5793 11.3094 6.10463 0.196664 0.465556 -0.17388 0.593274 0.18291 -1.25044 
140 8.45059 12.4456 6.11144 -0.124367 0.230759 -0.0272153 -2.56335 -0.313208 -0.921658 
199 15.5224 15.1074 6.17197 0.419864 -0.423471 0.0598763 0.270898 -0.643162 0.528679 
41 13.429 11.4029 6.05961 0.0302476 -0.382492 -0.00860587 1.75868 1.85681 1.72674 
289 17.652 16.3739 6.13592 0.591359 0.189628 0.0298617 -0.856893 2.53157 -2.17357 
39 19.141 9.18835 5.98823 -0.467438 -0.0653582 -0.0867319 -1.74753 0.817673 -0.959437 
56 19.1005 11.5953 5.99267 -0.113188 0.034836 0.214811 -0.266976 0.477799 1.07629 
195 16.9383 15.1563 6.15451 -0.255099 0.283687 -0.0683212 2.37046 -0.71907 -0.597939 
292 6.3228 23.4207 6.08942 -0.0549931 0.171982 0.275275 1.98726 2.36971 0.981399 
361 19.7726 24.9365 6.01572 0.43805 -0.374828 0.0388975 -2.47866 -0.802858 -0.548479 
293 7.03163 22.1996 6.14811 -0.0692462 0.218214 -0.268148 0.990092 -0.587071 -1.45314 
341 19.0557 23.7098 6.01065 0.0389358 -0.0102798 0.078295 0.234828 1.327 -0.124537 
294 8.44348 22.2528 6.12343 -0.188164 -0.0369867 -0.0466957 -1.78745 0.604119 0.61579 
348 16.9401 24.8886 6.00507 -0.956843 -0.169297 0.0692386 0.545801 -1.95977 -1.46715 
320 9.13661 23.4877 6.13005 -0.0301651 0.216999 -0.116765 0.849946 1.78941 -2.1302 
206 6.32267 20.9721 6.10395 0.0781305 -0.418494 0.0475917 -2.30101 -1.55594 -0.82864 
352 17.6311 23.6706 6.02191 0.755898 -0.101465 0.0211146 2.08203 1.4699 0.220605 
64 4.90868 18.4652 6.09765 0 0 0 0 0 0 
291 4.90868 23.3852 6.09765 0 0 0 0 0 0 
205 4.90868 20.9252 6.09765 0 0 0 0 0 0 
66 7.03579 17.2975 6.0601 0.180907 -0.268578 -0.0216208 -2.27741 -0.794453 -0.327335 
208 8.45019 19.8024 6.0568 0.0298394 -0.152502 0.0388364 -1.4911 -0.310803 -2.76941 
65 6.32353 18.5114 6.07673 0.0226525 0.213372 0.0180944 1.39366 0.96459 1.67358 
332 15.505 22.4152 6.06323 0.567592 0.229481 -0.0684136 -0.994084 -1.20726 -0.126445 
321 16.9172 22.4503 6.05341 0.221472 0.388794 -0.089965 1.16981 2.4407 -0.295495 
286 11.2792 19.8681 6.07913 -0.11442 -0.0868899 -0.0419218 0.523873 -1.88204 -2.04398 
318 7.02496 24.6585 6.122 -0.878286 0.313932 -0.081701 -0.203564 1.70868 -1.9292 
319 8.41749 24.707 6.12463 1.16739 -0.167405 0.0629634 2.19085 0.914388 0.567682 
323 17.6491 21.2555 6.04196 0.328731 -0.605276 0.163682 0.167912 1.15819 0.278314 
363 11.2637 29.6364 6.02871 0.956011 0.253546 -0.00839192 -1.32072 2.47126 1.30371 
210 10.5669 30.8617 6.03667 0.0234284 -0.0179782 0.0615131 -0.322826 1.53915 0.706182 
360 9.15278 28.3787 6.07232 0.297777 0.365022 0.0402328 -1.87554 -0.496192 1.02912 
218 14.8116 30.9424 6.03163 0.146732 0.0635571 -0.0934054 2.1223 -2.69586 -2.67487 
359 8.45 29.6102 6.06346 0.212567 -0.156846 0.0168078 -0.45158 1.61143 0.646916 
216 10.5741 33.3103 6.07122 -0.11637 0.0565626 0.076931 0.242991 1.26909 -1.57812 
222 13.4027 30.9041 6.01328 -0.26189 0.505903 0.153839 -0.277277 0.697846 2.85539 
211 12.6968 29.6817 6.02579 -1.04625 -0.0852944 0.0247282 0.0971266 -0.0808373 1.65962 
338 7.03152 27.1212 6.0725 -0.0337099 -0.0496323 0.146993 -1.63798 -0.696458 0.619736 
252 17.6303 33.4136 6.06954 0.482297 0.376102 0.0309815 -0.476821 -2.40089 1.5436 
236 15.5287 32.1638 6.03329 -0.347469 0.157115 0.0167333 2.33653 -1.28923 -1.52098 
220 19.0507 28.5805 6.05776 0.472428 -0.0761568 -0.122304 -0.25625 2.30693 -2.77208 
233 19.0547 31.015 6.07023 0.77372 -0.249749 0.0201549 1.98558 1.16686 0.381177 
213 16.9237 27.3259 5.97955 0.654597 -0.62584 0.203824 0.316926 0.706254 0.980885 
238 19.7836 29.7973 6.06271 -0.927359 0.22162 -0.0892296 -0.377178 -0.360173 1.80173 
212 14.8104 28.5037 6.02687 0.0497933 -0.0900245 0.0902182 -0.304246 0.573461 -0.0849296 
223 15.5268 29.7299 6.02776 -0.0504092 -0.296707 0.0374181 -0.764143 -0.852906 -0.64239 
372 7.04329 32.0275 6.09809 -0.760702 -0.244671 -0.0791686 2.37243 -0.255424 0.12573 
217 12.6884 32.1311 6.0351 0.0155911 -0.405048 -0.0584992 0.567414 2.02543 -2.18386 
357 6.32979 30.7868 6.06351 -0.220227 0.742587 0.242999 0.158773 0.165399 1.03385 
237 17.6536 30.9759 6.07562 -0.275351 -0.0713762 -0.107145 -2.05299 1.47952 1.45149 
232 16.9394 32.183 6.06161 -0.186039 0.380192 0.0106688 0.485266 0.226097 -0.807229 
317 6.32023 25.8924 6.10593 0.110723 -0.475461 -0.0865538 -1.22386 -0.885024 -0.180078 
219 16.9425 29.7591 6.04125 -0.377048 -0.233271 -0.118065 -0.377891 -0.621492 1.70705 
224 17.6439 28.5379 5.98647 0.0261786 0.42193 0.282434 -0.233492 -0.371488 0.33717 
381 9.16643 33.2847 6.11993 -0.425063 0.192596 -0.294753 0.731584 -0.230118 -1.08267 
248 19.0508 33.4512 6.07842 0.149535 -0.143902 0.0288849 -0.562436 -2.29292 1.94486 
253 19.7707 32.235 6.07458 0.0615098 0.0388568 -0.1082 1.82552 -1.14696 0.213826 
221 11.2719 32.0879 6.06133 0.455704 0.133507 -0.0923119 1.0297 0.537142 1.93923 
373 8.44989 32.0578 6.11848 0.335215 0.234086 -0.191723 0.338136 -1.25598 -0.0934796 
374 9.16002 30.8427 6.06472 -0.329387 -0.371967 0.0553631 1.12023 4.11878 1.57616 
365 15.5225 27.2829 6.0369 -0.383587 0.508897 -0.225698 -0.585271 -0.163851 1.08473 
364 13.3953 28.4636 6.04764 0.29208 -0.0641001 -0.00997554 -1.45969 -2.50071 -0.4238 
366 17.6448 26.1024 6.01676 0.253796 0.756308 -0.0896686 1.15891 -1.01062 -1.68768 
214 19.0639 26.1419 6.0327 -0.483281 0.387269 -0.00448088 0.270455 -0.419204 0.602885 
225 19.7686 27.3675 6.06211 0.203271 0.0545388 -0.0643872 0.0959365 -0.111517 -0.267424 
231 14.815 33.39 6.03412 -0.0363151 -0.536598 0.0686915 2.07573 -0.0691751 2.40429 
347 14.8034 26.073 6.04103 -0.233273 -0.395377 -0.0633728 -0.228421 -2.43236 0.512997 
346 12.6858 27.2389 6.07049 -0.381233 0.222095 -0.13496 0.162064 -0.858846 -0.182005 
235 13.401 33.3559 6.01236 -0.0841453 0.119946 0.166041 0.951713 0.741223 0.05763 
350 13.3856 26.0305 6.02632 0.496191 -0.601123 0.214107 1.14164 3.16883 -1.31585 
345 10.5734 28.4005 6.03955 -0.69169 0.624345 0.12499 0.124958 -1.59285 -0.894148 
327 10.5567 25.9733 6.0856 -0.146203 -0.456524 0.0903567 0.596553 -2.9695 0.235823 
234 11.2648 34.5433 6.04881 0.502524 0.278132 -0.109054 0.833408 -0.928357 1.5572 
878 15.5119 41.9296 6.04836 0.665501 0.299722 -0.187678 0.468009 -0.512683 0.73964 
782 10.5598 43.11 6.13312 -0.158988 0.226856 -0.258601 0.522751 0.0686442 -0.722461 
274 6.31408 43.0782 6.10754 0.199722 -0.214169 -0.0839687 0.26582 -0.0175126 1.18656 
270 19.7748 34.669 6.09836 -0.66404 0.466202 0.0130349 0.0625808 1.59448 -2.12447 
874 16.9403 41.9373 6.03599 -0.827257 0.777674 0.107396 -1.00888 -1.72141 -2.42421 
791 19.7653 37.1076 6.06705 0.1713 -0.459422 0.0808315 1.45635 -1.4549 -0.974549 
784 14.805 40.717 6.02127 -0.407959 -0.609819 0.0421515 0.474677 -0.667087 -2.08942 
260 6.31114 40.6149 6.11574 0.646298 0.313297 -0.0507803 0.764497 -2.09414 0.725891 
789 15.5194 39.4958 6.02534 0.0287459 0.858622 0.00798634 -2.80351 -0.232172 1.25422 
785 16.926 39.5164 6.02109 0.45341 -0.13223 0.145198 -0.903946 0.386187 -0.859315 
896 19.7594 41.9714 6.03841 0.533345 0.758668 0.124455 -1.90793 -1.93345 0.919699 
875 19.0556 40.7587 6.04051 -0.0618612 -0.558771 -0.144065 0.589425 1.19871 0.816315 
251 15.5163 34.6088 6.07768 -0.00882826 0.524692 0.0152282 -1.79007 -1.61464 -0.497527 
384 7.02147 36.9506 6.04704 0.40149 -0.42603 0.0685538 -0.530747 1.45587 0.953926 
790 17.6396 38.2978 6.07774 0.260651 -0.0208489 -0.153426 -0.131828 -0.118734 2.55342 
230 12.6892 34.5787 6.0414 -0.191134 0.0685944 -0.0080267 0.433883 -0.776075 0.111265 
277 9.14469 40.6448 6.07991 -0.030126 0.550781 0.0881806 -0.106164 2.42121 0.845319 
879 17.6475 40.7303 6.03016 -0.118115 -0.216825 -0.0264665 0.363234 0.509921 0.407333 
389 9.15203 38.193 6.03265 0.0371634 -0.0234854 0.130083 0.442834 -0.639361 -0.772488 
244 10.5664 38.2087 6.03381 -0.285752 0.473888 -0.0792052 0.359226 0.371896 -1.10784 
250 13.4031 35.8098 6.06925 -0.592561 -0.307221 -0.14383 2.47622 1.24171 4.0351 
268 15.5174 37.0622 6.11424 -0.143993 0.197215 -0.183577 1.8118 -2.16552 1.32823 
261 10.5551 40.6688 6.0944 0.318374 0.058648 -0.0899878 -0.110814 0.135083 -4.76706 
245 12.6855 37.0209 5.9951 -0.220732 0.109407 0.150367 0.0165322 0.558104 1.8125 
264 16.9318 37.0742 6.10669 -0.257012 0.17572 -0.024436 -0.49307 -1.37997 0.606424 
247 16.9277 34.6411 6.0811 -0.255443 -0.744939 0.034449 0.217275 0.783483 0.683921 
246 14.8065 35.8343 6.10191 0.420149 -0.0180923 -0.028391 -1.22003 0.187485 -1.48212 
266 11.2624 39.4427 6.06291 -0.403411 0.0785216 -0.0405574 0.878062 2.70258 -0.618887 
265 19.0426 35.8879 6.10671 0.460259 -0.319367 -0.137992 2.00205 0.61431 1.56915 
263 14.8118 38.2973 6.03915 -0.752457 -1.55516 0.143103 -1.71806 0.627951 1.55189 
880 19.7641 39.5361 6.02186 0.360417 0.25325 0.183993 1.79449 0.600205 -1.8996 
788 13.382 40.6882 6.01649 0.51036 0.10043 0.271738 -2.39681 -0.830729 -0.050916 
269 17.6286 35.8522 6.10413 0.569931 0.485501 0.035355 0.643517 1.76809 0.581236 
786 19.06 38.3161 6.04157 -0.567723 0.273507 0.075349 -0.685933 -2.13947 0.0484106 
783 12.6906 41.9138 6.09797 -0.439711 0.0861363 -0.321148 -0.480246 -0.725092 -1.37194 
267 13.3842 38.2516 6.02263 0.457578 0.224749 -0.0259036 -1.61105 -1.87687 0.59411 
262 12.6646 39.4696 6.05106 0.669744 -0.133143 -0.133523 -1.32886 0.479473 -0.454394 
787 11.2724 41.8968 6.08202 -0.0270902 -0.323425 0.222939 -1.49373 0.301719 0.339715 