ITEM: TIMESTEP
8600
ITEM: NUMBER OF ATOMS
4798
ITEM: BOX BOUNDS ff ff ff
-10.3577 110.358
-10.0998 131.9
-100.402 112.598
ITEM: ATOMS id x y z fx fy fz vx vy vz 
72 -0.062301 2.4752 6.09765 0 0 0 0 0 0 
110 4.19854 7.39519 6.09765 0 0 0 0 0 0 
109 2.77826 7.39519 6.09765 0 0 0 0 0 0 
93 4.19854 4.9352 6.09765 0 0 0 0 0 0 
92 2.77826 4.9352 6.09765 0 0 0 0 0 0 
91 2.06812 6.16519 6.09765 0 0 0 0 0 0 
87 0.647839 6.16519 6.09765 0 0 0 0 0 0 
86 -0.062301 7.39519 6.09765 0 0 0 0 0 0 
81 4.19854 2.4752 6.09765 0 0 0 0 0 0 
80 2.77826 2.4752 6.09765 0 0 0 0 0 0 
79 2.06812 3.7052 6.09765 0 0 0 0 0 0 
78 0.647839 3.7052 6.09765 0 0 0 0 0 0 
77 -0.062301 4.9352 6.09765 0 0 0 0 0 0 
76 4.19854 0.015197 6.09765 0 0 0 0 0 0 
75 2.77826 0.015197 6.09765 0 0 0 0 0 0 
74 2.06812 1.2452 6.09765 0 0 0 0 0 0 
73 0.647839 1.2452 6.09765 0 0 0 0 0 0 
6 -0.062301 12.3152 6.09765 0 0 0 0 0 0 
131 4.19854 12.3152 6.09765 0 0 0 0 0 0 
130 2.77826 12.3152 6.09765 0 0 0 0 0 0 
124 4.19854 9.85519 6.09765 0 0 0 0 0 0 
123 2.77826 9.85519 6.09765 0 0 0 0 0 0 
122 2.06812 11.0852 6.09765 0 0 0 0 0 0 
117 0.647839 11.0852 6.09765 0 0 0 0 0 0 
108 2.06812 8.62519 6.09765 0 0 0 0 0 0 
100 0.647839 8.62519 6.09765 0 0 0 0 0 0 
99 -0.062301 9.85519 6.09765 0 0 0 0 0 0 
34 4.19854 14.7752 6.09765 0 0 0 0 0 0 
33 2.77826 14.7752 6.09765 0 0 0 0 0 0 
32 2.06812 16.0052 6.09765 0 0 0 0 0 0 
31 0.647839 16.0052 6.09765 0 0 0 0 0 0 
19 2.06812 13.5452 6.09765 0 0 0 0 0 0 
18 0.647839 13.5452 6.09765 0 0 0 0 0 0 
17 -0.062301 14.7752 6.09765 0 0 0 0 0 0 
300 4.19854 24.6152 6.09765 0 0 0 0 0 0 
299 2.77826 24.6152 6.09765 0 0 0 0 0 0 
204 4.19854 22.1552 6.09765 0 0 0 0 0 0 
203 2.77826 22.1552 6.09765 0 0 0 0 0 0 
202 2.06812 23.3852 6.09765 0 0 0 0 0 0 
191 0.647839 23.3852 6.09765 0 0 0 0 0 0 
190 -0.062301 24.6152 6.09765 0 0 0 0 0 0 
71 2.06812 20.9252 6.09765 0 0 0 0 0 0 
70 0.647839 20.9252 6.09765 0 0 0 0 0 0 
69 -0.062301 22.1552 6.09765 0 0 0 0 0 0 
63 4.19854 19.6952 6.09765 0 0 0 0 0 0 
62 2.77826 19.6952 6.09765 0 0 0 0 0 0 
49 4.19854 17.2352 6.09765 0 0 0 0 0 0 
48 2.77826 17.2352 6.09765 0 0 0 0 0 0 
47 2.06812 18.4652 6.09765 0 0 0 0 0 0 
46 0.647839 18.4652 6.09765 0 0 0 0 0 0 
45 -0.062301 19.6952 6.09765 0 0 0 0 0 0 
30 -0.062301 17.2352 6.09765 0 0 0 0 0 0 
355 4.19854 31.9952 6.09765 0 0 0 0 0 0 
354 2.77826 31.9952 6.09765 0 0 0 0 0 0 
353 2.06812 33.2252 6.09765 0 0 0 0 0 0 
344 0.647839 33.2252 6.09765 0 0 0 0 0 0 
335 4.19854 29.5352 6.09765 0 0 0 0 0 0 
334 2.77826 29.5352 6.09765 0 0 0 0 0 0 
333 2.06812 30.7652 6.09765 0 0 0 0 0 0 
326 0.647839 30.7652 6.09765 0 0 0 0 0 0 
325 -0.062301 31.9952 6.09765 0 0 0 0 0 0 
315 4.19854 27.0752 6.09765 0 0 0 0 0 0 
314 2.77826 27.0752 6.09765 0 0 0 0 0 0 
313 2.06812 28.3052 6.09765 0 0 0 0 0 0 
308 0.647839 28.3052 6.09765 0 0 0 0 0 0 
307 -0.062301 29.5352 6.09765 0 0 0 0 0 0 
298 2.06812 25.8452 6.09765 0 0 0 0 0 0 
297 0.647839 25.8452 6.09765 0 0 0 0 0 0 
296 -0.062301 27.0752 6.09765 0 0 0 0 0 0 
215 -0.062301 36.9152 6.09765 0 0 0 0 0 0 
376 4.19854 36.9152 6.09765 0 0 0 0 0 0 
375 2.77826 36.9152 6.09765 0 0 0 0 0 0 
369 4.19854 34.4552 6.09765 0 0 0 0 0 0 
368 2.77826 34.4552 6.09765 0 0 0 0 0 0 
367 2.06812 35.6852 6.09765 0 0 0 0 0 0 
362 0.647839 35.6852 6.09765 0 0 0 0 0 0 
343 -0.062301 34.4552 6.09765 0 0 0 0 0 0 
258 4.19854 41.8352 6.09765 0 0 0 0 0 0 
257 2.77826 41.8352 6.09765 0 0 0 0 0 0 
256 2.06812 43.0652 6.09765 0 0 0 0 0 0 
255 0.647839 43.0652 6.09765 0 0 0 0 0 0 
243 4.19854 39.3752 6.09765 0 0 0 0 0 0 
242 2.77826 39.3752 6.09765 0 0 0 0 0 0 
241 2.06812 40.6052 6.09765 0 0 0 0 0 0 
240 0.647839 40.6052 6.09765 0 0 0 0 0 0 
239 -0.062301 41.8352 6.09765 0 0 0 0 0 0 
228 2.06812 38.1452 6.09765 0 0 0 0 0 0 
227 0.647839 38.1452 6.09765 0 0 0 0 0 0 
226 -0.062301 39.3752 6.09765 0 0 0 0 0 0 
254 -0.062301 44.2952 6.09765 0 0 0 0 0 0 
905 4.19854 51.6752 6.09765 0 0 0 0 0 0 
904 2.77826 51.6752 6.09765 0 0 0 0 0 0 
890 4.19854 49.2152 6.09765 0 0 0 0 0 0 
889 2.77826 49.2152 6.09765 0 0 0 0 0 0 
888 2.06812 50.4452 6.09765 0 0 0 0 0 0 
887 0.647839 50.4452 6.09765 0 0 0 0 0 0 
886 -0.062301 51.6752 6.09765 0 0 0 0 0 0 
794 4.19854 46.7552 6.09765 0 0 0 0 0 0 
793 2.77826 46.7552 6.09765 0 0 0 0 0 0 
792 2.06812 47.9852 6.09765 0 0 0 0 0 0 
781 0.647839 47.9852 6.09765 0 0 0 0 0 0 
780 -0.062301 49.2152 6.09765 0 0 0 0 0 0 
280 2.06812 45.5252 6.09765 0 0 0 0 0 0 
279 0.647839 45.5252 6.09765 0 0 0 0 0 0 
278 -0.062301 46.7552 6.09765 0 0 0 0 0 0 
272 4.19854 44.2952 6.09765 0 0 0 0 0 0 
271 2.77826 44.2952 6.09765 0 0 0 0 0 0 
959 4.19854 59.0552 6.09765 0 0 0 0 0 0 
958 2.77826 59.0552 6.09765 0 0 0 0 0 0 
957 2.06812 60.2852 6.09765 0 0 0 0 0 0 
952 0.647839 60.2852 6.09765 0 0 0 0 0 0 
945 4.19854 56.5952 6.09765 0 0 0 0 0 0 
944 2.77826 56.5952 6.09765 0 0 0 0 0 0 
943 2.06812 57.8252 6.09765 0 0 0 0 0 0 
934 0.647839 57.8252 6.09765 0 0 0 0 0 0 
933 -0.062301 59.0552 6.09765 0 0 0 0 0 0 
925 4.19854 54.1352 6.09765 0 0 0 0 0 0 
924 2.77826 54.1352 6.09765 0 0 0 0 0 0 
923 2.06812 55.3652 6.09765 0 0 0 0 0 0 
916 0.647839 55.3652 6.09765 0 0 0 0 0 0 
915 -0.062301 56.5952 6.09765 0 0 0 0 0 0 
903 2.06812 52.9052 6.09765 0 0 0 0 0 0 
898 0.647839 52.9052 6.09765 0 0 0 0 0 0 
897 -0.062301 54.1352 6.09765 0 0 0 0 0 0 
805 -0.062301 61.5152 6.09765 0 0 0 0 0 0 
966 4.19854 61.5152 6.09765 0 0 0 0 0 0 
965 2.77826 61.5152 6.09765 0 0 0 0 0 0 
862 4.19854 68.8952 6.09765 0 0 0 0 0 0 
861 2.77826 68.8952 6.09765 0 0 0 0 0 0 
848 4.19854 66.4352 6.09765 0 0 0 0 0 0 
847 2.77826 66.4352 6.09765 0 0 0 0 0 0 
846 2.06812 67.6652 6.09765 0 0 0 0 0 0 
845 0.647839 67.6652 6.09765 0 0 0 0 0 0 
844 -0.062301 68.8952 6.09765 0 0 0 0 0 0 
833 4.19854 63.9752 6.09765 0 0 0 0 0 0 
832 2.77826 63.9752 6.09765 0 0 0 0 0 0 
831 2.06812 65.2052 6.09765 0 0 0 0 0 0 
830 0.647839 65.2052 6.09765 0 0 0 0 0 0 
829 -0.062301 66.4352 6.09765 0 0 0 0 0 0 
818 2.06812 62.7452 6.09765 0 0 0 0 0 0 
817 0.647839 62.7452 6.09765 0 0 0 0 0 0 
816 -0.062301 63.9752 6.09765 0 0 0 0 0 0 
1828 4.19854 76.2752 6.09765 0 0 0 0 0 0 
1827 2.77826 76.2752 6.09765 0 0 0 0 0 0 
1826 2.06812 77.5052 6.09765 0 0 0 0 0 0 
1821 0.647839 77.5052 6.09765 0 0 0 0 0 0 
1813 4.19854 73.8152 6.09765 0 0 0 0 0 0 
1812 2.77826 73.8152 6.09765 0 0 0 0 0 0 
1811 2.06812 75.0452 6.09765 0 0 0 0 0 0 
1810 0.647839 75.0452 6.09765 0 0 0 0 0 0 
1809 -0.062301 76.2752 6.09765 0 0 0 0 0 0 
1717 4.19854 71.3552 6.09765 0 0 0 0 0 0 
1716 2.77826 71.3552 6.09765 0 0 0 0 0 0 
1715 2.06812 72.5852 6.09765 0 0 0 0 0 0 
1704 0.647839 72.5852 6.09765 0 0 0 0 0 0 
1703 -0.062301 73.8152 6.09765 0 0 0 0 0 0 
870 2.06812 70.1252 6.09765 0 0 0 0 0 0 
869 0.647839 70.1252 6.09765 0 0 0 0 0 0 
868 -0.062301 71.3552 6.09765 0 0 0 0 0 0 
1728 -0.062301 86.1152 6.09765 0 0 0 0 0 0 
1889 4.19854 86.1152 6.09765 0 0 0 0 0 0 
1888 2.77826 86.1152 6.09765 0 0 0 0 0 0 
1882 4.19854 83.6552 6.09765 0 0 0 0 0 0 
1881 2.77826 83.6552 6.09765 0 0 0 0 0 0 
1880 2.06812 84.8852 6.09765 0 0 0 0 0 0 
1875 0.647839 84.8852 6.09765 0 0 0 0 0 0 
1868 4.19854 81.1952 6.09765 0 0 0 0 0 0 
1867 2.77826 81.1952 6.09765 0 0 0 0 0 0 
1866 2.06812 82.4252 6.09765 0 0 0 0 0 0 
1857 0.647839 82.4252 6.09765 0 0 0 0 0 0 
1856 -0.062301 83.6552 6.09765 0 0 0 0 0 0 
1848 4.19854 78.7352 6.09765 0 0 0 0 0 0 
1847 2.77826 78.7352 6.09765 0 0 0 0 0 0 
1846 2.06812 79.9652 6.09765 0 0 0 0 0 0 
1839 0.647839 79.9652 6.09765 0 0 0 0 0 0 
1838 -0.062301 81.1952 6.09765 0 0 0 0 0 0 
1820 -0.062301 78.7352 6.09765 0 0 0 0 0 0 
1741 2.06812 87.3452 6.09765 0 0 0 0 0 0 
1740 0.647839 87.3452 6.09765 0 0 0 0 0 0 
2677 4.19854 95.9552 6.09765 0 0 0 0 0 0 
2676 2.77826 95.9552 6.09765 0 0 0 0 0 0 
1793 2.06812 94.7252 6.09765 0 0 0 0 0 0 
1792 0.647839 94.7252 6.09765 0 0 0 0 0 0 
1791 -0.062301 95.9552 6.09765 0 0 0 0 0 0 
1785 4.19854 93.4952 6.09765 0 0 0 0 0 0 
1784 2.77826 93.4952 6.09765 0 0 0 0 0 0 
1771 4.19854 91.0352 6.09765 0 0 0 0 0 0 
1770 2.77826 91.0352 6.09765 0 0 0 0 0 0 
1769 2.06812 92.2652 6.09765 0 0 0 0 0 0 
1768 0.647839 92.2652 6.09765 0 0 0 0 0 0 
1767 -0.062301 93.4952 6.09765 0 0 0 0 0 0 
1756 4.19854 88.5752 6.09765 0 0 0 0 0 0 
1755 2.77826 88.5752 6.09765 0 0 0 0 0 0 
1754 2.06812 89.8052 6.09765 0 0 0 0 0 0 
1753 0.647839 89.8052 6.09765 0 0 0 0 0 0 
1752 -0.062301 91.0352 6.09765 0 0 0 0 0 0 
1739 -0.062301 88.5752 6.09765 0 0 0 0 0 0 
2663 -0.062301 98.4152 6.09765 0 0 0 0 0 0 
2808 4.19854 103.335 6.09765 0 0 0 0 0 0 
2807 2.77826 103.335 6.09765 0 0 0 0 0 0 
2806 2.06812 104.565 6.09765 0 0 0 0 0 0 
2799 0.647839 104.565 6.09765 0 0 0 0 0 0 
2788 4.19854 100.875 6.09765 0 0 0 0 0 0 
2787 2.77826 100.875 6.09765 0 0 0 0 0 0 
2786 2.06812 102.105 6.09765 0 0 0 0 0 0 
2781 0.647839 102.105 6.09765 0 0 0 0 0 0 
2780 -0.062301 103.335 6.09765 0 0 0 0 0 0 
2773 4.19854 98.4152 6.09765 0 0 0 0 0 0 
2772 2.77826 98.4152 6.09765 0 0 0 0 0 0 
2771 2.06812 99.6452 6.09765 0 0 0 0 0 0 
2770 0.647839 99.6452 6.09765 0 0 0 0 0 0 
2769 -0.062301 100.875 6.09765 0 0 0 0 0 0 
2675 2.06812 97.1852 6.09765 0 0 0 0 0 0 
2664 0.647839 97.1852 6.09765 0 0 0 0 0 0 
2849 4.19854 110.715 6.09765 0 0 0 0 0 0 
2848 2.77826 110.715 6.09765 0 0 0 0 0 0 
2842 4.19854 108.255 6.09765 0 0 0 0 0 0 
2841 2.77826 108.255 6.09765 0 0 0 0 0 0 
2840 2.06812 109.485 6.09765 0 0 0 0 0 0 
2835 0.647839 109.485 6.09765 0 0 0 0 0 0 
2828 4.19854 105.795 6.09765 0 0 0 0 0 0 
2827 2.77826 105.795 6.09765 0 0 0 0 0 0 
2826 2.06812 107.025 6.09765 0 0 0 0 0 0 
2817 0.647839 107.025 6.09765 0 0 0 0 0 0 
2816 -0.062301 108.255 6.09765 0 0 0 0 0 0 
2798 -0.062301 105.795 6.09765 0 0 0 0 0 0 
2716 4.19854 113.175 6.09765 0 0 0 0 0 0 
2715 2.77826 113.175 6.09765 0 0 0 0 0 0 
2701 2.06812 111.945 6.09765 0 0 0 0 0 0 
2700 0.647839 111.945 6.09765 0 0 0 0 0 0 
2699 -0.062301 113.175 6.09765 0 0 0 0 0 0 
2688 -0.062301 110.715 6.09765 0 0 0 0 0 0 
2712 -0.062301 115.635 6.09765 0 0 0 0 0 0 
3636 4.19854 120.555 6.09765 0 0 0 0 0 0 
3635 2.77826 120.555 6.09765 0 0 0 0 0 0 
3634 2.06812 121.785 6.09765 0 0 0 0 0 0 
3623 0.647839 121.785 6.09765 0 0 0 0 0 0 
2753 2.06812 119.325 6.09765 0 0 0 0 0 0 
2752 0.647839 119.325 6.09765 0 0 0 0 0 0 
2751 -0.062301 120.555 6.09765 0 0 0 0 0 0 
2745 4.19854 118.095 6.09765 0 0 0 0 0 0 
2744 2.77826 118.095 6.09765 0 0 0 0 0 0 
2731 4.19854 115.635 6.09765 0 0 0 0 0 0 
2730 2.77826 115.635 6.09765 0 0 0 0 0 0 
2729 2.06812 116.865 6.09765 0 0 0 0 0 0 
2728 0.647839 116.865 6.09765 0 0 0 0 0 0 
2727 -0.062301 118.095 6.09765 0 0 0 0 0 0 
2714 2.06812 114.405 6.09765 0 0 0 0 0 0 
2713 0.647839 114.405 6.09765 0 0 0 0 0 0 
85 8.55991 0.344246 6.1308 -0.0274958 -0.0966385 -0.0548081 1.06728 0.471641 1.73208 
24 19.1827 6.76258 5.90441 -0.308577 0.25095 -0.0119095 3.11697 0.414619 -1.62996 
95 6.33039 3.81864 6.07425 0.232817 -0.781784 0.0823454 0.434688 1.45575 1.11511 
114 8.48403 5.14503 6.04596 0.12691 0.206512 -0.175351 -0.509238 0.749363 -0.89783 
2 12.7912 5.32885 5.9594 -0.748998 0.576982 0.0766442 -0.0955615 -1.07625 -0.7434 
113 7.0596 5.03806 6.06008 0.149313 1.01521 -0.0664414 0.607205 -1.19403 -0.187817 
13 13.4911 6.55205 5.97446 0.0838082 0.631507 -0.121622 1.9767 -2.1551 1.16184 
28 17.7655 6.69668 5.9203 0.0713068 0.541613 0.124565 -1.85936 2.2768 -0.539764 
98 9.30113 1.53783 6.13926 0.232223 0.716872 -0.0926214 1.51811 -0.870152 -0.0269931 
97 8.5287 2.73651 6.07486 -0.217272 -0.807016 -0.0380217 -1.21868 0.25932 1.70449 
96 7.07818 2.61285 6.08614 0.06242 0.58762 -0.0634144 1.84638 -1.51141 0.966566 
115 9.23768 3.96116 6.00338 -0.241954 -0.304733 0.324945 0.943664 0.503665 -0.573396 
89 12.8708 0.557916 6.18065 0.528655 0.07801 -0.113008 2.37359 0.250018 0.0772046 
5 19.2527 1.96221 5.43508 0.178308 0.510639 0.0272923 -0.965032 1.89287 0.0161657 
119 13.5345 4.1537 5.93829 0.396139 -0.614712 0.135273 2.2052 1.29227 -0.235749 
11 19.2247 4.34877 5.79174 0.0127828 0.743005 -0.131934 0.2214 -0.358184 -0.0425594 
14 15.6626 5.44279 5.91931 -0.562545 -0.0953653 -0.054208 -1.68034 -1.2078 0.395549 
120 15.6939 3.03788 5.82327 0.607466 -0.0841595 0.0131113 -2.02469 2.27079 -1.89697 
15 17.8114 4.30889 5.81711 0.496465 -0.656903 -0.0219159 1.16562 -1.55133 -0.383362 
3 14.9602 4.2219 5.91755 -0.647452 0.158271 -0.18439 1.92845 -0.301826 0.622233 
83 6.34677 1.3688 6.11296 -0.0494408 -0.196048 0.133807 -0.313151 -2.00245 0.716895 
88 10.7023 1.63011 6.16756 0.00836161 0.054052 0.0095965 -1.90095 -0.108746 1.86203 
10 17.0698 5.47727 5.89024 -0.151687 0.710981 0.0254943 0.681358 -1.33317 0.503587 
105 11.4125 2.86355 6.05729 -0.347006 -0.670272 0.0556002 1.86269 1.31436 -1.03192 
102 12.8324 2.92533 5.99509 0.20335 0.760296 -0.11732 -0.115699 3.90829 -2.05138 
106 13.5987 1.75576 5.99429 0.291677 -0.802516 0.0959845 0.298928 -0.0168189 0.445867 
90 11.5102 0.484505 6.32459 -0.0490068 0.116699 -0.0389889 -0.466459 0.31859 2.24724 
9 14.9073 6.63181 5.93392 0.287268 -0.425748 0.189606 0.0249269 -2.67816 1.12374 
94 4.90868 3.7052 6.09765 0 0 0 0 0 0 
111 4.90868 6.16519 6.09765 0 0 0 0 0 0 
82 4.90868 1.2452 6.09765 0 0 0 0 0 0 
121 17.8824 1.89816 5.61667 -0.529202 -0.13923 0.147214 -0.773372 1.06806 -0.649642 
107 15.7839 0.679684 5.59873 -0.282307 -0.26104 -0.0427427 -0.954596 -1.60272 0.131884 
84 7.19339 0.238394 6.24697 -0.205138 0.0426057 -0.0408921 -0.0688388 -0.440835 0.963872 
4 17.1287 3.08558 5.74537 -0.59302 -0.131454 0.142768 -1.51628 -0.330093 -0.547382 
104 17.1463 0.697713 5.73683 0.412344 0.25045 -0.0235536 1.22964 0.984939 -4.09308 
103 14.9893 1.81443 5.82949 -0.174091 -0.0823227 -0.012939 2.29401 0.407463 -0.116945 
129 9.20684 6.37626 6.01716 -0.260721 -0.0612338 0.129875 -1.70615 -1.09068 0.715257 
1 10.6235 6.45054 6.02665 0.157561 0.632832 -0.0491963 -0.868429 0.797019 -1.34134 
112 6.33 6.26276 6.05464 0.157884 -0.79072 0.148046 -2.53538 -0.153452 0.707531 
128 8.47981 7.58483 6.03787 -0.394874 -0.674531 0.0248301 1.11808 -0.928138 0.592511 
127 7.05241 7.49517 6.04828 0.33479 -0.0393895 0.114141 -0.267954 -0.279121 -2.72976 
118 11.3625 5.26679 6.01087 0.412012 -0.644252 -0.0345238 0.584855 0.613295 -0.947976 
101 10.6532 4.03616 6.04654 0.243905 0.687124 -0.240209 -0.390114 -1.14271 0.443573 
201 19.8511 12.8175 6.05598 -0.179106 -0.507452 0.104684 0.623442 0.174836 -0.104363 
290 19.8456 15.2359 6.12417 -0.158216 -0.0579895 -0.199762 1.36622 1.73678 -1.75361 
68 9.17893 16.1322 6.13922 -0.269453 0.464691 -0.186899 -2.86884 -0.355678 -1.05325 
35 10.5973 13.754 6.11895 -0.331988 0.433497 -0.258141 0.760999 0.657515 0.290462 
144 9.17134 13.6928 6.0731 0.677743 -0.470201 0.133971 1.80397 1.87361 -1.36805 
143 8.46911 14.9017 6.10022 -0.909248 0.429642 0.014371 1.69588 -1.13585 -0.74867 
142 7.0381 14.8539 6.09696 0.338462 -0.608749 0.0165991 1.11137 -1.36526 1.20769 
194 14.8681 16.3169 6.04344 -1.02261 0.234297 -0.0378246 -1.11283 -0.216965 1.33175 
198 13.4334 16.2642 6.01974 0.602978 0.269696 0.196941 -0.441291 -1.49568 -2.95721 
27 15.6198 7.84319 5.98257 -0.581474 0.0252287 -0.0478883 1.87064 0.0899711 -0.443357 
36 12.7408 12.6146 6.10921 -0.389251 -0.156197 -0.00472001 2.72415 -0.219923 -0.619312 
58 13.4479 13.8309 6.0887 -0.116083 0.187724 -0.0577601 0.145929 -0.112812 -1.54397 
138 6.32649 13.6049 6.11295 0.182113 0.25991 -0.0998116 0.513168 0.325877 0.297568 
52 10.5939 16.1983 6.08708 -0.14656 0.387169 0.124417 0.657233 0.282941 -0.907706 
57 11.3096 14.9897 6.07559 0.130167 -0.361514 0.111758 0.0366334 -0.437368 -1.01702 
23 17.0198 7.89281 5.98687 0.854911 -0.0594736 -0.0555798 0.0190789 -1.78484 1.42503 
43 17.7303 9.11286 6.02495 0.242037 0.125895 -0.0322597 2.07306 -0.46853 2.6558 
42 15.582 10.2581 6.03456 0.230162 0.287112 -0.0872197 2.06661 1.19013 0.105541 
285 19.1095 16.4393 6.06903 0.115109 -0.569427 0.0539636 1.34768 -1.72976 -1.67926 
26 13.4769 8.97952 6.00394 -0.469285 -0.258667 0.189972 -0.484078 -0.770485 0.991063 
22 14.8822 9.03447 5.99515 0.166623 0.243538 0.0663907 -1.69364 -0.807511 0.617803 
53 12.7286 15.0361 6.061 -0.345436 0.181072 -0.00546886 -0.486614 0.762204 -1.60235 
306 19.8214 17.6408 6.0398 0.501437 0.757624 0.182613 2.77567 -1.1339 0.372727 
192 10.5786 18.6514 6.08572 0.0210282 -0.273374 -0.0430467 0.681766 1.55419 0.844807 
283 14.8428 18.7472 6.06112 0.146528 0.809916 -0.130875 0.15728 -1.13945 -1.25353 
282 12.7063 19.9237 6.05451 0.29867 -0.787811 0.0526691 -0.799572 2.26047 -0.193591 
351 15.5254 24.8527 6.06016 0.719128 0.254624 0.0125322 2.6851 0.20076 1.7378 
312 13.4209 21.1318 6.04289 0.0451687 0.778769 0.0809907 1.22437 -1.91659 1.53219 
209 9.16322 18.5827 6.09911 -0.0553584 0.34343 0.094921 1.08606 -0.339559 -0.275184 
287 13.4315 18.7064 6.06073 -0.324718 0.0829776 -0.066089 2.22161 -0.769023 -0.050906 
342 19.808 22.5127 6.04505 -0.300939 -0.400613 -0.0078252 1.19379 0.204836 -0.709988 
67 8.4476 17.3531 6.14763 0.338355 -0.439973 -0.277989 1.28381 1.65353 -0.708738 
301 14.8306 21.1906 6.04747 0.138393 0.558824 0.00691339 1.11459 -0.370698 -1.08078 
324 19.8017 20.0684 6.0372 0.495624 0.0482508 -0.0801389 -2.08537 0.0553879 1.1541 
193 12.7153 17.4822 6.0597 0.0220333 -0.0857333 -0.065179 -2.67015 -0.318158 -0.599537 
197 11.2985 17.4422 6.07112 0.00845195 -0.610921 0.00753908 -1.17698 -0.263191 1.90003 
304 15.5493 19.9904 6.03101 0.284277 -0.797481 0.0712426 0.705045 -1.35728 -2.24151 
305 17.6885 18.8141 6.047 -0.457094 0.397426 -0.209479 1.08659 -1.42845 -1.42657 
329 14.8222 23.6407 6.06514 -0.00709947 -0.729172 -0.0812456 -0.417109 0.566783 0.596715 
303 19.0981 18.8492 6.02313 0.0498888 -0.0830452 0.0840927 0.270322 -1.8575 -0.535304 
288 15.5669 17.5485 6.03693 -0.439084 -0.293348 -0.0198415 -1.28283 1.25838 -0.976989 
284 16.9649 17.5976 6.01952 0.775213 0.166423 0.175122 1.61659 0.731979 -1.76194 
322 19.0941 21.2751 6.01911 -0.509505 0.950678 0.150335 0.361063 -2.00001 0.307969 
302 16.9684 20.0371 6.02882 -0.201654 -0.473115 0.0173945 0.21319 0.0808107 0.981252 
330 11.2752 24.7479 6.05202 -0.191688 0.274657 0.00932263 -1.03022 1.33204 -1.1763 
331 13.412 23.5879 6.0292 -0.113794 -0.36409 0.183358 0.667275 0.314507 -2.02416 
295 9.16495 21.0351 6.0522 -0.0748082 -0.477175 -0.0473766 -0.206883 0.0709473 0.442522 
309 10.5583 23.5227 6.03338 0.955673 -0.155471 0.00786134 -0.511973 -0.628138 -1.00645 
328 12.6885 24.7958 6.03671 0.308989 0.675209 0.190452 0.955485 -0.788783 -0.913583 
311 11.2944 22.3095 6.01568 -0.610699 -0.0520446 0.181214 0.171184 -2.94553 -2.43918 
207 7.03172 19.7462 6.06097 -0.0558628 0.10382 0.111086 -1.30396 0.418872 -0.7451 
310 12.7055 22.3493 6.05112 0.146176 0.356051 -0.177265 -0.647709 -2.60435 -0.801631 
281 10.5798 21.0758 6.03499 0.0575671 0.484962 0.0943722 -2.12945 -1.09122 0.116481 
137 4.90868 13.5452 6.09765 0 0 0 0 0 0 
132 4.90868 11.0852 6.09765 0 0 0 0 0 0 
125 4.90868 8.62519 6.09765 0 0 0 0 0 0 
50 4.90868 16.0052 6.09765 0 0 0 0 0 0 
126 6.32482 8.70184 6.0983 0.258719 0.113419 -0.165987 -0.731554 0.627776 0.153838 
133 6.32244 11.155 6.10233 0.498413 -0.102899 -0.0645002 -2.38845 -1.93087 -2.73052 
135 8.46898 10.0087 6.08414 0.305615 -0.0328641 0.00810441 1.00463 0.315674 1.69466 
134 7.05011 9.93606 6.08296 -0.307197 0.106952 0.157139 1.0194 1.33999 1.07097 
51 6.32016 16.0666 6.07352 0.117878 -0.274602 0.187695 -1.21286 -1.16471 -0.792953 
139 7.05054 12.3883 6.09719 -0.625614 0.0761354 -0.0412295 -1.59647 0.244056 1.736 
21 12.7454 10.1757 6.07569 0.00272302 0.273991 -0.12051 1.70526 0.100055 2.03797 
40 11.3302 12.5596 6.12412 -0.510374 -0.935815 -0.0508603 2.33884 -0.332513 -0.320112 
37 14.858 11.4679 6.06443 0.374204 -0.391668 0.0088548 -2.22065 1.31228 0.473726 
54 14.8506 13.8866 6.08347 0.819127 0.441369 0.030666 0.383518 3.61016 0.32958 
200 17.7063 13.9524 6.10429 0.383056 -0.0163356 -0.0530678 2.20022 0.872072 -3.00866 
55 16.9894 12.7273 6.09976 -0.061928 0.999806 -0.164762 -1.03831 0.111105 0.145448 
196 19.1261 14.0168 6.10768 -0.11015 -0.038739 0.00962416 0.799094 0.132756 -2.77287 
136 9.20703 8.7938 6.05522 -0.837388 0.938263 0.0784344 -0.917431 -0.817716 1.45295 
12 11.3421 7.68037 6.02172 -0.196655 -0.24647 0.0942445 -0.638949 -0.632587 -2.12782 
59 15.5789 12.6855 6.08474 -0.224234 -0.244215 -0.0110137 0.480623 -0.635428 0.527498 
25 11.3313 10.1035 6.09409 -0.238276 -0.00933779 -0.0869588 0.345568 -2.12077 -0.0790882 
7 10.608 8.87473 6.06468 0.603366 0.386808 0.00200612 0.742333 0.0383183 -0.392515 
60 17.7106 11.5424 6.03301 0.321003 -1.08023 0.190916 -0.57322 0.374011 1.64757 
8 12.7542 7.76018 6.00559 0.320503 -0.471747 -0.0996131 0.658554 -0.388525 -0.653917 
38 16.9979 10.3101 6.03307 0.0877081 0.447796 0.00360283 1.42624 0.284543 -0.00785277 
141 9.18596 11.2478 6.10453 -0.0358384 -0.108901 -0.148099 -1.98618 -0.0126235 -1.53687 
20 10.6088 11.3145 6.11011 -0.0307221 0.457658 0.0785568 0.021709 0.225482 -0.862682 
140 8.45657 12.4596 6.06748 0.557472 -0.123673 0.164225 0.336093 0.882105 0.445329 
199 15.5813 15.1113 6.08443 -0.202402 -0.398106 -0.142192 -1.46218 -0.283577 -0.0309737 
41 13.4507 11.4071 6.07701 0.0254363 -0.198345 0.107602 -1.11271 -1.29671 -1.06734 
289 17.6957 16.4001 6.05333 0.00184812 -0.774269 0.0472902 0.449607 2.02584 0.830831 
39 19.149 9.18668 6.0108 0.0520333 -0.526124 0.0816044 -0.473323 0.437269 0.354404 
56 19.1279 11.5891 6.06436 0.115623 0.836564 -0.0688681 -0.25908 2.16194 -0.57338 
195 16.996 15.1593 6.07402 -0.28917 0.425381 0.0273955 -0.961341 -0.100503 0.0522524 
292 6.33132 23.4053 6.07689 -0.652519 0.523342 -0.17136 2.18295 2.61112 -0.974519 
361 19.7978 24.9429 6.0173 -0.0224864 0.00744962 0.00416961 0.843712 -0.360173 2.37077 
293 7.03441 22.191 6.04356 0.258918 0.0129897 0.179099 2.62735 0.378054 1.55753 
341 19.0876 23.7283 6.04785 -0.344886 -0.407044 -0.0379214 1.01856 1.21266 -0.331368 
294 8.44924 22.2439 6.04982 -0.109423 0.0886259 -0.0680585 0.181096 -1.02578 -2.45001 
348 16.9432 24.8904 6.0624 -0.258003 0.0211015 -0.00104329 0.0510949 -0.507879 0.611849 
320 9.15943 23.4705 6.04418 -0.767386 0.318981 -0.0449226 1.55632 1.83801 1.12246 
206 6.32087 20.9693 6.07168 0.0524047 -0.371954 -0.0123548 -0.0762249 -0.534366 0.556312 
352 17.6651 23.6914 6.06466 0.497484 -0.337647 -0.010785 -0.0484323 -0.851845 -1.19569 
64 4.90868 18.4652 6.09765 0 0 0 0 0 0 
291 4.90868 23.3852 6.09765 0 0 0 0 0 0 
205 4.90868 20.9252 6.09765 0 0 0 0 0 0 
66 7.03302 17.2883 6.0903 0.382448 0.243401 0.165847 -1.51326 0.329572 0.805039 
208 8.44475 19.8044 6.07881 0.276104 -0.204588 -0.0362155 -1.47251 0.940008 1.71891 
65 6.33396 18.5065 6.09503 -0.72062 0.35893 -0.0885736 1.03338 -2.32091 -0.612295 
332 15.548 22.4255 6.05784 -0.335583 -0.167859 -0.00773553 2.74081 -1.33626 0.469252 
321 16.9667 22.4658 6.06326 -0.701234 0.483519 -0.0408425 0.35789 -0.552583 0.290489 
286 11.2997 19.871 6.07373 -0.3786 -0.152336 -0.116313 0.793999 -1.58088 3.27883 
318 7.03246 24.6388 6.04117 -0.87233 0.623752 0.119388 0.056236 0.600096 0.62021 
319 8.43032 24.6883 6.03125 1.0946 0.129828 0.06082 -1.58068 1.6875 -1.52257 
323 17.6665 21.265 6.03233 1.10898 -0.816873 0.0272695 -0.607772 2.65288 0.622559 
363 11.268 29.6517 6.04753 0.819531 0.0551924 0.239495 -1.10693 2.17401 -0.544776 
210 10.5731 30.87 6.07681 -0.270996 0.131469 -0.0694036 0.225679 -0.303901 -0.275509 
360 9.14904 28.387 6.1195 0.179099 -0.0493952 -0.137846 -1.81142 -0.078617 -0.604931 
218 14.819 30.9532 6.11367 -0.103156 -0.143555 0.00811496 -0.990284 -2.25241 2.71921 
359 8.44113 29.6076 6.1193 0.114853 -0.0515869 -0.0528345 -1.75666 -2.03359 -0.811948 
216 10.5767 33.316 6.1195 -0.0284751 -0.0265421 -0.328791 -0.327108 1.75874 2.22763 
222 13.3989 30.9156 6.11312 0.46904 0.348843 -0.0581164 -1.43773 0.90785 -1.66129 
211 12.6906 29.6981 6.08106 -0.425411 -0.474379 -0.0718124 -0.69022 0.709805 1.53213 
338 7.03004 27.1079 6.11806 0.119827 -0.355576 -0.12147 0.922241 -1.4199 -1.01698 
252 17.6605 33.4223 6.08719 -0.317419 0.635981 0.0350717 2.08832 0.254939 -1.16053 
236 15.537 32.1786 6.1421 -0.50493 -0.248532 -0.173771 -0.818575 -1.02454 0.882165 
220 19.0598 28.583 6.01128 0.0710058 0.460308 0.0836534 -0.0754953 0.0950573 1.81614 
233 19.0684 31.0358 6.05336 0.0143771 -0.674936 -0.174624 1.59425 -0.675259 0.190816 
213 16.9391 27.327 6.04164 0.265194 -0.335153 -0.010709 -1.09449 -0.116113 -1.26246 
238 19.7739 29.8103 5.99562 -0.202173 0.00758899 0.168165 0.857314 -0.0478527 -2.63177 
212 14.8162 28.5136 6.06203 -0.210117 -0.361293 -0.0737089 -0.0695282 -0.196847 0.993844 
223 15.5272 29.7288 6.07006 -0.175166 0.478295 0.0585693 -1.12234 0.0333519 0.569861 
372 7.02153 32.0225 6.08089 0.19159 -0.224464 0.0420634 2.64053 -2.19104 0.418727 
217 12.6911 32.134 6.09694 0.113646 -0.211702 0.0243682 1.02934 -1.01191 2.70535 
357 6.31761 30.7779 6.12645 0.168576 0.766636 -0.284847 -1.6572 0.513971 -1.79021 
237 17.6567 30.9884 6.05727 -0.329778 0.207584 0.021433 -0.0404276 -0.604948 -0.0469908 
232 16.9463 32.2141 6.104 -0.0219843 -0.722208 -0.0294845 -1.2591 -0.865967 1.09434 
317 6.31626 25.8749 6.07383 0.606615 -0.358639 0.0968792 1.50999 1.85085 -2.18504 
219 16.933 29.7637 6.03664 0.504738 0.256745 0.0949931 0.447019 -1.26091 -0.598901 
224 17.6472 28.5504 6.03174 0.104195 -0.127697 -0.0686518 0.669296 -0.4629 0.0874242 
381 9.16307 33.2791 6.06912 -0.193807 0.0366023 0.163072 -0.450262 0.983247 3.72265 
248 19.0692 33.4641 6.08886 0.0472235 -0.0785953 -0.00380187 -0.0190317 1.43749 -1.23526 
253 19.7826 32.2522 6.05349 0.369551 -0.0507733 0.0844156 -0.481011 0.70921 0.955103 
221 11.2853 32.0941 6.07432 -0.339592 0.195824 0.147986 3.50744 -1.51027 -2.01824 
373 8.44283 32.0501 6.05613 0.111709 0.151919 0.179319 1.48911 3.38995 1.52182 
374 9.16274 30.831 6.09144 -0.479795 0.111642 -0.0645306 -0.373189 2.20276 0.136539 
365 15.5283 27.2955 6.03826 -0.049433 -0.0757225 0.12833 -2.12618 -1.12608 0.0479923 
364 13.4002 28.4776 6.07367 -0.0346758 -0.0639323 0.0165909 0.928968 1.99775 3.25717 
366 17.6572 26.1021 6.05152 0.392041 0.892247 0.0881536 1.5938 -1.02513 0.623428 
214 19.086 26.1503 6.06319 -0.753652 0.237088 -0.18167 0.044119 -0.83569 -0.41715 
225 19.7858 27.382 6.04773 -0.190959 -0.350141 -0.10185 -0.0338763 -0.541737 -0.513312 
231 14.8076 33.3859 6.126 -0.111903 -0.179507 -0.0650862 2.57463 1.04267 -1.5721 
347 14.8259 26.0661 6.05873 -0.658137 0.424038 0.0333235 -1.33942 -2.07353 1.41687 
346 12.6858 27.249 6.07854 -0.165584 0.450946 0.0384198 0.510106 -1.06106 0.343971 
235 13.3916 33.3583 6.10349 0.447774 0.0334347 0.0930564 -0.0592755 0.562935 1.80657 
350 13.4021 26.0478 6.09672 0.118715 -1.33139 -0.285082 3.31318 0.260157 -0.519235 
345 10.5664 28.4275 6.08975 -0.370116 -0.296777 -0.0345731 2.35368 -2.4079 -0.971856 
327 10.5606 25.9713 6.0734 0.190662 -0.119453 -0.141184 -0.39328 0.332499 0.533052 
234 11.282 34.5496 6.09448 -0.328331 -0.0724659 0.117351 2.23647 -0.43793 0.387428 
878 15.5264 41.9379 6.03121 0.245485 0.887274 0.190448 0.76084 -0.667517 -0.917761 
782 10.5758 43.1379 6.08102 -0.188164 -0.0460579 0.0404134 0.0383523 0.189906 0.268908 
274 6.31887 43.0846 6.08206 0.174214 -0.335849 0.111125 0.577101 1.01988 0.562131 
270 19.7772 34.6822 6.12889 0.282255 -0.0817471 -0.187177 0.333821 1.37388 0.810756 
874 16.9512 41.9632 6.03535 -1.22634 0.62565 -0.0766855 -1.07356 0.696982 1.76857 
791 19.7735 37.1067 6.1085 0.33565 0.294245 -0.0479578 -0.379617 -1.04634 1.17225 
784 14.809 40.728 6.06991 0.00241179 -0.42673 -0.0564963 0.262346 1.04156 0.949326 
260 6.32141 40.6288 6.05875 0.0760851 -0.081703 -0.0229735 -0.734311 -3.11366 0.0123186 
789 15.5201 39.5058 6.06347 0.172318 0.284382 0.0648255 -0.346038 -0.961068 -1.66873 
785 16.9352 39.5299 6.08335 0.232079 0.159241 -0.191118 2.74267 -0.975458 0.651756 
896 19.7794 41.9964 6.00334 -0.179318 0.0385392 0.0201248 0.50114 0.412057 0.955576 
875 19.0655 40.7768 6.04844 -0.0812224 -0.4332 0.15198 -1.18559 1.62518 -0.522525 
251 15.5097 34.6043 6.09984 0.268474 0.629725 -0.0503492 -0.353529 -0.838447 0.0238841 
384 7.02539 36.9297 6.0817 -0.0866286 0.552205 -0.019431 0.155696 -2.0571 -1.19007 
790 17.6446 38.3017 6.07015 0.243439 0.571541 0.188606 4.2245 1.70124 -0.00319979 
230 12.6916 34.5779 6.10505 -0.108327 0.104262 -0.062512 -1.48524 -0.543 2.34435 
277 9.14627 40.656 5.98145 0.0270226 0.094216 0.161337 -0.371392 0.678948 -1.28428 
879 17.6473 40.7652 6.04585 0.495037 -1.37796 0.0647278 -1.44346 3.03254 -0.599133 
389 9.14385 38.1876 6.04422 0.164858 0.614915 0.00407705 0.246915 1.26529 1.93055 
244 10.5604 38.224 6.05538 -0.201854 0.26667 0.0249642 1.23465 -1.06922 0.415448 
250 13.3838 35.8109 6.09015 0.400236 0.125884 0.0535323 3.20922 -0.989176 -2.21636 
268 15.5208 37.0574 6.07426 -0.245116 0.0262872 0.0582836 -0.239689 -0.834331 0.0462434 
261 10.5599 40.6842 6.02436 0.428331 -0.0792885 -0.07308 -0.714784 0.194766 5.72141 
245 12.6883 37.0404 6.08244 -0.408387 -0.44501 -0.0464034 2.21959 -0.429137 -0.44568 
264 16.927 37.0902 6.0783 0.524562 -0.628659 -0.0334922 -1.35177 -0.364161 1.29776 
247 16.9277 34.6353 6.06647 0.414569 0.291122 0.126664 -1.57348 -0.892483 0.219948 
246 14.8027 35.8334 6.1039 0.023821 -0.0801307 -0.134725 -1.30175 0.455802 0.866346 
266 11.2734 39.4544 6.04991 -0.343959 0.140636 -0.0424777 -0.637493 2.19625 -0.44203 
265 19.0613 35.8913 6.09656 -0.0155735 0.0749911 0.0986545 0.393236 -2.04747 -2.04223 
263 14.8203 38.2855 6.07588 -0.555285 -0.456156 -0.100955 -1.76654 -0.0713044 -1.59111 
880 19.7721 39.5467 6.13167 0.0839292 0.433121 -0.214497 1.07377 0.310695 0.18751 
788 13.394 40.7093 6.07241 0.0821715 -0.0717263 -0.178451 -1.80735 1.22383 -0.893612 
269 17.6501 35.867 6.0781 -0.647247 -0.127624 -0.00657267 -0.548261 -1.32525 0.374661 
786 19.0656 38.3286 6.11549 -0.509884 -0.23564 -0.0883852 -1.49137 0.951892 0.523556 
783 12.6927 41.9334 6.01141 -0.00536448 -0.0818733 0.299811 -0.688731 0.357704 2.52166 
267 13.3998 38.256 6.05922 0.241725 0.420378 0.0589783 0.960886 -1.09686 1.30377 
262 12.6875 39.4783 6.05644 0.10494 0.0886921 0.0370087 -1.5249 1.02061 1.47214 
787 11.2809 41.9149 6.04858 -0.225937 -0.244287 -0.0516081 -0.598505 -0.666159 -1.11696 