ITEM: TIMESTEP
8400
ITEM: NUMBER OF ATOMS
4798
ITEM: BOX BOUNDS ff ff ff
-10.3577 110.358
-10.0998 131.9
-100.402 112.598
ITEM: ATOMS id x y z fx fy fz vx vy vz 
72 -0.062301 2.4752 6.09765 0 0 0 0 0 0 
110 4.19854 7.39519 6.09765 0 0 0 0 0 0 
109 2.77826 7.39519 6.09765 0 0 0 0 0 0 
93 4.19854 4.9352 6.09765 0 0 0 0 0 0 
92 2.77826 4.9352 6.09765 0 0 0 0 0 0 
91 2.06812 6.16519 6.09765 0 0 0 0 0 0 
87 0.647839 6.16519 6.09765 0 0 0 0 0 0 
86 -0.062301 7.39519 6.09765 0 0 0 0 0 0 
81 4.19854 2.4752 6.09765 0 0 0 0 0 0 
80 2.77826 2.4752 6.09765 0 0 0 0 0 0 
79 2.06812 3.7052 6.09765 0 0 0 0 0 0 
78 0.647839 3.7052 6.09765 0 0 0 0 0 0 
77 -0.062301 4.9352 6.09765 0 0 0 0 0 0 
76 4.19854 0.015197 6.09765 0 0 0 0 0 0 
75 2.77826 0.015197 6.09765 0 0 0 0 0 0 
74 2.06812 1.2452 6.09765 0 0 0 0 0 0 
73 0.647839 1.2452 6.09765 0 0 0 0 0 0 
6 -0.062301 12.3152 6.09765 0 0 0 0 0 0 
131 4.19854 12.3152 6.09765 0 0 0 0 0 0 
130 2.77826 12.3152 6.09765 0 0 0 0 0 0 
124 4.19854 9.85519 6.09765 0 0 0 0 0 0 
123 2.77826 9.85519 6.09765 0 0 0 0 0 0 
122 2.06812 11.0852 6.09765 0 0 0 0 0 0 
117 0.647839 11.0852 6.09765 0 0 0 0 0 0 
108 2.06812 8.62519 6.09765 0 0 0 0 0 0 
100 0.647839 8.62519 6.09765 0 0 0 0 0 0 
99 -0.062301 9.85519 6.09765 0 0 0 0 0 0 
34 4.19854 14.7752 6.09765 0 0 0 0 0 0 
33 2.77826 14.7752 6.09765 0 0 0 0 0 0 
32 2.06812 16.0052 6.09765 0 0 0 0 0 0 
31 0.647839 16.0052 6.09765 0 0 0 0 0 0 
19 2.06812 13.5452 6.09765 0 0 0 0 0 0 
18 0.647839 13.5452 6.09765 0 0 0 0 0 0 
17 -0.062301 14.7752 6.09765 0 0 0 0 0 0 
300 4.19854 24.6152 6.09765 0 0 0 0 0 0 
299 2.77826 24.6152 6.09765 0 0 0 0 0 0 
204 4.19854 22.1552 6.09765 0 0 0 0 0 0 
203 2.77826 22.1552 6.09765 0 0 0 0 0 0 
202 2.06812 23.3852 6.09765 0 0 0 0 0 0 
191 0.647839 23.3852 6.09765 0 0 0 0 0 0 
190 -0.062301 24.6152 6.09765 0 0 0 0 0 0 
71 2.06812 20.9252 6.09765 0 0 0 0 0 0 
70 0.647839 20.9252 6.09765 0 0 0 0 0 0 
69 -0.062301 22.1552 6.09765 0 0 0 0 0 0 
63 4.19854 19.6952 6.09765 0 0 0 0 0 0 
62 2.77826 19.6952 6.09765 0 0 0 0 0 0 
49 4.19854 17.2352 6.09765 0 0 0 0 0 0 
48 2.77826 17.2352 6.09765 0 0 0 0 0 0 
47 2.06812 18.4652 6.09765 0 0 0 0 0 0 
46 0.647839 18.4652 6.09765 0 0 0 0 0 0 
45 -0.062301 19.6952 6.09765 0 0 0 0 0 0 
30 -0.062301 17.2352 6.09765 0 0 0 0 0 0 
355 4.19854 31.9952 6.09765 0 0 0 0 0 0 
354 2.77826 31.9952 6.09765 0 0 0 0 0 0 
353 2.06812 33.2252 6.09765 0 0 0 0 0 0 
344 0.647839 33.2252 6.09765 0 0 0 0 0 0 
335 4.19854 29.5352 6.09765 0 0 0 0 0 0 
334 2.77826 29.5352 6.09765 0 0 0 0 0 0 
333 2.06812 30.7652 6.09765 0 0 0 0 0 0 
326 0.647839 30.7652 6.09765 0 0 0 0 0 0 
325 -0.062301 31.9952 6.09765 0 0 0 0 0 0 
315 4.19854 27.0752 6.09765 0 0 0 0 0 0 
314 2.77826 27.0752 6.09765 0 0 0 0 0 0 
313 2.06812 28.3052 6.09765 0 0 0 0 0 0 
308 0.647839 28.3052 6.09765 0 0 0 0 0 0 
307 -0.062301 29.5352 6.09765 0 0 0 0 0 0 
298 2.06812 25.8452 6.09765 0 0 0 0 0 0 
297 0.647839 25.8452 6.09765 0 0 0 0 0 0 
296 -0.062301 27.0752 6.09765 0 0 0 0 0 0 
215 -0.062301 36.9152 6.09765 0 0 0 0 0 0 
376 4.19854 36.9152 6.09765 0 0 0 0 0 0 
375 2.77826 36.9152 6.09765 0 0 0 0 0 0 
369 4.19854 34.4552 6.09765 0 0 0 0 0 0 
368 2.77826 34.4552 6.09765 0 0 0 0 0 0 
367 2.06812 35.6852 6.09765 0 0 0 0 0 0 
362 0.647839 35.6852 6.09765 0 0 0 0 0 0 
343 -0.062301 34.4552 6.09765 0 0 0 0 0 0 
258 4.19854 41.8352 6.09765 0 0 0 0 0 0 
257 2.77826 41.8352 6.09765 0 0 0 0 0 0 
256 2.06812 43.0652 6.09765 0 0 0 0 0 0 
255 0.647839 43.0652 6.09765 0 0 0 0 0 0 
243 4.19854 39.3752 6.09765 0 0 0 0 0 0 
242 2.77826 39.3752 6.09765 0 0 0 0 0 0 
241 2.06812 40.6052 6.09765 0 0 0 0 0 0 
240 0.647839 40.6052 6.09765 0 0 0 0 0 0 
239 -0.062301 41.8352 6.09765 0 0 0 0 0 0 
228 2.06812 38.1452 6.09765 0 0 0 0 0 0 
227 0.647839 38.1452 6.09765 0 0 0 0 0 0 
226 -0.062301 39.3752 6.09765 0 0 0 0 0 0 
254 -0.062301 44.2952 6.09765 0 0 0 0 0 0 
905 4.19854 51.6752 6.09765 0 0 0 0 0 0 
904 2.77826 51.6752 6.09765 0 0 0 0 0 0 
890 4.19854 49.2152 6.09765 0 0 0 0 0 0 
889 2.77826 49.2152 6.09765 0 0 0 0 0 0 
888 2.06812 50.4452 6.09765 0 0 0 0 0 0 
887 0.647839 50.4452 6.09765 0 0 0 0 0 0 
886 -0.062301 51.6752 6.09765 0 0 0 0 0 0 
794 4.19854 46.7552 6.09765 0 0 0 0 0 0 
793 2.77826 46.7552 6.09765 0 0 0 0 0 0 
792 2.06812 47.9852 6.09765 0 0 0 0 0 0 
781 0.647839 47.9852 6.09765 0 0 0 0 0 0 
780 -0.062301 49.2152 6.09765 0 0 0 0 0 0 
280 2.06812 45.5252 6.09765 0 0 0 0 0 0 
279 0.647839 45.5252 6.09765 0 0 0 0 0 0 
278 -0.062301 46.7552 6.09765 0 0 0 0 0 0 
272 4.19854 44.2952 6.09765 0 0 0 0 0 0 
271 2.77826 44.2952 6.09765 0 0 0 0 0 0 
959 4.19854 59.0552 6.09765 0 0 0 0 0 0 
958 2.77826 59.0552 6.09765 0 0 0 0 0 0 
957 2.06812 60.2852 6.09765 0 0 0 0 0 0 
952 0.647839 60.2852 6.09765 0 0 0 0 0 0 
945 4.19854 56.5952 6.09765 0 0 0 0 0 0 
944 2.77826 56.5952 6.09765 0 0 0 0 0 0 
943 2.06812 57.8252 6.09765 0 0 0 0 0 0 
934 0.647839 57.8252 6.09765 0 0 0 0 0 0 
933 -0.062301 59.0552 6.09765 0 0 0 0 0 0 
925 4.19854 54.1352 6.09765 0 0 0 0 0 0 
924 2.77826 54.1352 6.09765 0 0 0 0 0 0 
923 2.06812 55.3652 6.09765 0 0 0 0 0 0 
916 0.647839 55.3652 6.09765 0 0 0 0 0 0 
915 -0.062301 56.5952 6.09765 0 0 0 0 0 0 
903 2.06812 52.9052 6.09765 0 0 0 0 0 0 
898 0.647839 52.9052 6.09765 0 0 0 0 0 0 
897 -0.062301 54.1352 6.09765 0 0 0 0 0 0 
805 -0.062301 61.5152 6.09765 0 0 0 0 0 0 
966 4.19854 61.5152 6.09765 0 0 0 0 0 0 
965 2.77826 61.5152 6.09765 0 0 0 0 0 0 
862 4.19854 68.8952 6.09765 0 0 0 0 0 0 
861 2.77826 68.8952 6.09765 0 0 0 0 0 0 
848 4.19854 66.4352 6.09765 0 0 0 0 0 0 
847 2.77826 66.4352 6.09765 0 0 0 0 0 0 
846 2.06812 67.6652 6.09765 0 0 0 0 0 0 
845 0.647839 67.6652 6.09765 0 0 0 0 0 0 
844 -0.062301 68.8952 6.09765 0 0 0 0 0 0 
833 4.19854 63.9752 6.09765 0 0 0 0 0 0 
832 2.77826 63.9752 6.09765 0 0 0 0 0 0 
831 2.06812 65.2052 6.09765 0 0 0 0 0 0 
830 0.647839 65.2052 6.09765 0 0 0 0 0 0 
829 -0.062301 66.4352 6.09765 0 0 0 0 0 0 
818 2.06812 62.7452 6.09765 0 0 0 0 0 0 
817 0.647839 62.7452 6.09765 0 0 0 0 0 0 
816 -0.062301 63.9752 6.09765 0 0 0 0 0 0 
1828 4.19854 76.2752 6.09765 0 0 0 0 0 0 
1827 2.77826 76.2752 6.09765 0 0 0 0 0 0 
1826 2.06812 77.5052 6.09765 0 0 0 0 0 0 
1821 0.647839 77.5052 6.09765 0 0 0 0 0 0 
1813 4.19854 73.8152 6.09765 0 0 0 0 0 0 
1812 2.77826 73.8152 6.09765 0 0 0 0 0 0 
1811 2.06812 75.0452 6.09765 0 0 0 0 0 0 
1810 0.647839 75.0452 6.09765 0 0 0 0 0 0 
1809 -0.062301 76.2752 6.09765 0 0 0 0 0 0 
1717 4.19854 71.3552 6.09765 0 0 0 0 0 0 
1716 2.77826 71.3552 6.09765 0 0 0 0 0 0 
1715 2.06812 72.5852 6.09765 0 0 0 0 0 0 
1704 0.647839 72.5852 6.09765 0 0 0 0 0 0 
1703 -0.062301 73.8152 6.09765 0 0 0 0 0 0 
870 2.06812 70.1252 6.09765 0 0 0 0 0 0 
869 0.647839 70.1252 6.09765 0 0 0 0 0 0 
868 -0.062301 71.3552 6.09765 0 0 0 0 0 0 
1728 -0.062301 86.1152 6.09765 0 0 0 0 0 0 
1889 4.19854 86.1152 6.09765 0 0 0 0 0 0 
1888 2.77826 86.1152 6.09765 0 0 0 0 0 0 
1882 4.19854 83.6552 6.09765 0 0 0 0 0 0 
1881 2.77826 83.6552 6.09765 0 0 0 0 0 0 
1880 2.06812 84.8852 6.09765 0 0 0 0 0 0 
1875 0.647839 84.8852 6.09765 0 0 0 0 0 0 
1868 4.19854 81.1952 6.09765 0 0 0 0 0 0 
1867 2.77826 81.1952 6.09765 0 0 0 0 0 0 
1866 2.06812 82.4252 6.09765 0 0 0 0 0 0 
1857 0.647839 82.4252 6.09765 0 0 0 0 0 0 
1856 -0.062301 83.6552 6.09765 0 0 0 0 0 0 
1848 4.19854 78.7352 6.09765 0 0 0 0 0 0 
1847 2.77826 78.7352 6.09765 0 0 0 0 0 0 
1846 2.06812 79.9652 6.09765 0 0 0 0 0 0 
1839 0.647839 79.9652 6.09765 0 0 0 0 0 0 
1838 -0.062301 81.1952 6.09765 0 0 0 0 0 0 
1820 -0.062301 78.7352 6.09765 0 0 0 0 0 0 
1741 2.06812 87.3452 6.09765 0 0 0 0 0 0 
1740 0.647839 87.3452 6.09765 0 0 0 0 0 0 
2677 4.19854 95.9552 6.09765 0 0 0 0 0 0 
2676 2.77826 95.9552 6.09765 0 0 0 0 0 0 
1793 2.06812 94.7252 6.09765 0 0 0 0 0 0 
1792 0.647839 94.7252 6.09765 0 0 0 0 0 0 
1791 -0.062301 95.9552 6.09765 0 0 0 0 0 0 
1785 4.19854 93.4952 6.09765 0 0 0 0 0 0 
1784 2.77826 93.4952 6.09765 0 0 0 0 0 0 
1771 4.19854 91.0352 6.09765 0 0 0 0 0 0 
1770 2.77826 91.0352 6.09765 0 0 0 0 0 0 
1769 2.06812 92.2652 6.09765 0 0 0 0 0 0 
1768 0.647839 92.2652 6.09765 0 0 0 0 0 0 
1767 -0.062301 93.4952 6.09765 0 0 0 0 0 0 
1756 4.19854 88.5752 6.09765 0 0 0 0 0 0 
1755 2.77826 88.5752 6.09765 0 0 0 0 0 0 
1754 2.06812 89.8052 6.09765 0 0 0 0 0 0 
1753 0.647839 89.8052 6.09765 0 0 0 0 0 0 
1752 -0.062301 91.0352 6.09765 0 0 0 0 0 0 
1739 -0.062301 88.5752 6.09765 0 0 0 0 0 0 
2663 -0.062301 98.4152 6.09765 0 0 0 0 0 0 
2808 4.19854 103.335 6.09765 0 0 0 0 0 0 
2807 2.77826 103.335 6.09765 0 0 0 0 0 0 
2806 2.06812 104.565 6.09765 0 0 0 0 0 0 
2799 0.647839 104.565 6.09765 0 0 0 0 0 0 
2788 4.19854 100.875 6.09765 0 0 0 0 0 0 
2787 2.77826 100.875 6.09765 0 0 0 0 0 0 
2786 2.06812 102.105 6.09765 0 0 0 0 0 0 
2781 0.647839 102.105 6.09765 0 0 0 0 0 0 
2780 -0.062301 103.335 6.09765 0 0 0 0 0 0 
2773 4.19854 98.4152 6.09765 0 0 0 0 0 0 
2772 2.77826 98.4152 6.09765 0 0 0 0 0 0 
2771 2.06812 99.6452 6.09765 0 0 0 0 0 0 
2770 0.647839 99.6452 6.09765 0 0 0 0 0 0 
2769 -0.062301 100.875 6.09765 0 0 0 0 0 0 
2675 2.06812 97.1852 6.09765 0 0 0 0 0 0 
2664 0.647839 97.1852 6.09765 0 0 0 0 0 0 
2849 4.19854 110.715 6.09765 0 0 0 0 0 0 
2848 2.77826 110.715 6.09765 0 0 0 0 0 0 
2842 4.19854 108.255 6.09765 0 0 0 0 0 0 
2841 2.77826 108.255 6.09765 0 0 0 0 0 0 
2840 2.06812 109.485 6.09765 0 0 0 0 0 0 
2835 0.647839 109.485 6.09765 0 0 0 0 0 0 
2828 4.19854 105.795 6.09765 0 0 0 0 0 0 
2827 2.77826 105.795 6.09765 0 0 0 0 0 0 
2826 2.06812 107.025 6.09765 0 0 0 0 0 0 
2817 0.647839 107.025 6.09765 0 0 0 0 0 0 
2816 -0.062301 108.255 6.09765 0 0 0 0 0 0 
2798 -0.062301 105.795 6.09765 0 0 0 0 0 0 
2716 4.19854 113.175 6.09765 0 0 0 0 0 0 
2715 2.77826 113.175 6.09765 0 0 0 0 0 0 
2701 2.06812 111.945 6.09765 0 0 0 0 0 0 
2700 0.647839 111.945 6.09765 0 0 0 0 0 0 
2699 -0.062301 113.175 6.09765 0 0 0 0 0 0 
2688 -0.062301 110.715 6.09765 0 0 0 0 0 0 
2712 -0.062301 115.635 6.09765 0 0 0 0 0 0 
3636 4.19854 120.555 6.09765 0 0 0 0 0 0 
3635 2.77826 120.555 6.09765 0 0 0 0 0 0 
3634 2.06812 121.785 6.09765 0 0 0 0 0 0 
3623 0.647839 121.785 6.09765 0 0 0 0 0 0 
2753 2.06812 119.325 6.09765 0 0 0 0 0 0 
2752 0.647839 119.325 6.09765 0 0 0 0 0 0 
2751 -0.062301 120.555 6.09765 0 0 0 0 0 0 
2745 4.19854 118.095 6.09765 0 0 0 0 0 0 
2744 2.77826 118.095 6.09765 0 0 0 0 0 0 
2731 4.19854 115.635 6.09765 0 0 0 0 0 0 
2730 2.77826 115.635 6.09765 0 0 0 0 0 0 
2729 2.06812 116.865 6.09765 0 0 0 0 0 0 
2728 0.647839 116.865 6.09765 0 0 0 0 0 0 
2727 -0.062301 118.095 6.09765 0 0 0 0 0 0 
2714 2.06812 114.405 6.09765 0 0 0 0 0 0 
2713 0.647839 114.405 6.09765 0 0 0 0 0 0 
85 8.56291 0.342719 5.77687 0.0603336 -0.0174885 0.0373758 -0.979199 -0.911974 1.49918 
24 19.1881 6.75878 5.99624 0.122505 -0.287076 -0.0319607 0.580375 -2.57245 0.614903 
95 6.33952 3.81654 6.05594 0.240167 -0.990451 0.151526 2.33057 -1.27948 0.628326 
114 8.50225 5.12163 6.06076 -0.555693 0.633272 0.00030584 1.04448 2.2028 0.969694 
2 12.7992 5.31492 6.05599 -0.393716 0.922085 -0.0774763 -0.0507768 0.414622 -0.0339723 
113 7.06843 5.04016 6.09589 0.029842 0.468709 -0.0969757 -1.17767 0.311387 0.552685 
13 13.5113 6.5443 6.05095 -0.418294 0.632978 -0.0775176 0.577752 -0.916163 0.841276 
28 17.7838 6.70237 5.99699 -0.519488 0.0903955 0.111746 -0.525292 0.957316 0.809561 
98 9.30185 1.53689 5.9005 0.478724 -0.420911 -0.195812 0.326419 0.568207 -0.342835 
97 8.52334 2.70734 5.97207 0.30862 0.354663 0.0577026 1.40446 0.237302 0.974991 
96 7.08969 2.60057 6.03268 -0.892622 0.862108 0.00365049 2.05243 0.785991 1.73861 
115 9.23974 3.9343 6.00618 0.0149892 -0.265509 0.0910911 1.25395 -1.85422 -0.162311 
89 12.8658 0.529652 6.13424 0.449716 0.0729123 0.119268 0.562466 0.958355 1.67706 
5 19.2562 1.9349 5.59618 0.221812 -0.768684 -0.137406 -0.730441 -0.447597 0.150436 
119 13.5428 4.14452 6.03087 0.161435 -0.770313 0.103694 -3.21772 -0.48824 -1.45364 
11 19.224 4.33639 5.86083 0.336934 0.00820601 0.0104726 0.36877 0.25431 -0.118682 
14 15.6733 5.4342 5.99606 -0.986191 -0.12473 0.00394109 -0.829607 3.33723 -1.87402 
120 15.6936 3.0138 5.98504 0.0621223 -0.0554119 0.0121105 -1.287 -1.34252 0.131858 
15 17.8113 4.29401 5.9579 0.0765438 -0.59124 -0.227053 1.12886 1.61167 0.114872 
3 14.9504 4.21082 6.01335 0.717404 0.0648362 -0.0667933 1.90804 0.815016 -1.13728 
83 6.33765 1.36576 6.03757 0.768436 -0.488376 -0.101742 1.77465 -0.0352026 -0.409856 
88 10.7107 1.6024 5.87573 -0.364786 0.703504 0.360402 -0.187981 -0.187283 1.34156 
10 17.0739 5.48421 5.99016 0.509243 0.131783 -0.0553382 -0.940282 2.1754 0.528421 
105 11.4205 2.84048 5.98859 0.115836 -0.508766 -0.135256 0.693389 1.17825 0.206606 
102 12.8602 2.90878 6.06024 -0.702779 0.302333 -0.163838 0.766488 0.720997 -1.01375 
106 13.6177 1.72239 6.0789 -0.57935 -0.19496 -0.00325431 -0.122062 -1.62994 -0.858614 
90 11.5276 0.467085 5.85592 -0.0695966 -0.464618 -0.117341 1.84316 2.04861 0.547138 
9 14.927 6.63198 6.00054 -0.0282477 -0.395838 0.136079 -0.874555 -0.129012 -0.874148 
94 4.90868 3.7052 6.09765 0 0 0 0 0 0 
111 4.90868 6.16519 6.09765 0 0 0 0 0 0 
82 4.90868 1.2452 6.09765 0 0 0 0 0 0 
121 17.8855 1.85777 5.86097 -0.0631199 0.607711 -0.0294142 -0.0688086 -2.23265 -2.46883 
107 15.7962 0.630373 5.94562 0.0761722 -0.165369 0.00827193 1.57332 -0.157842 -1.61454 
84 7.20646 0.233006 5.97656 -0.618729 0.053687 0.068468 -1.08576 -1.75865 0.47682 
4 17.1174 3.0584 5.92082 0.303246 0.0962189 0.140149 -0.706 -1.19277 0.250086 
104 17.1611 0.67217 6.08217 0.133282 0.00541552 -0.031238 -0.784769 0.903034 -2.77301 
103 14.996 1.78118 6.03162 0.494354 0.171855 -0.0629738 -0.179133 -0.448511 0.475106 
129 9.22034 6.35473 6.08111 -0.359295 0.236826 -0.0530111 0.680554 -0.0848272 0.927365 
1 10.6438 6.43761 6.04701 -0.387324 0.492099 0.0695497 0.597343 -0.631989 -0.566694 
112 6.32613 6.2545 6.10508 0.463223 -0.583414 0.0347996 0.882531 -1.07956 1.11164 
128 8.47446 7.56418 6.10563 0.15289 -0.318696 0.0953858 1.51922 -1.43159 2.41261 
127 7.04551 7.48219 6.12217 0.546042 0.182254 -0.15414 -1.17508 -0.802373 -2.13503 
118 11.3762 5.24691 6.04721 0.230171 -0.390923 -0.015662 0.113263 -1.48832 -1.44404 
101 10.6615 4.01763 6.02336 0.201286 0.430316 -0.0560971 0.684345 -0.521646 1.67051 
201 19.8268 12.8056 6.0619 -0.425248 0.309452 -0.00102432 -1.21885 -2.4055 0.504775 
290 19.8084 15.2254 6.05642 0.616887 0.602978 0.0322541 0.359677 1.09361 1.00449 
68 9.17409 16.1202 6.10474 -0.513561 0.479726 -0.00577376 -1.38638 -0.317995 -1.52214 
35 10.5878 13.7435 6.1291 -0.677817 0.476707 -0.125696 1.22668 0.0998471 0.419168 
144 9.16586 13.6925 6.09141 0.513683 -0.454951 0.0502397 3.11921 1.22349 -1.21834 
143 8.45499 14.8992 6.07869 -0.393865 0.120032 0.0972934 -0.249011 -2.39568 -0.547503 
142 7.03402 14.8394 6.0837 0.47987 0.172932 0.0790142 0.150045 -2.58992 0.101491 
194 14.8378 16.3145 6.1258 -0.617867 0.292514 0.101279 0.479841 -2.26874 1.32262 
198 13.4223 16.2514 6.12564 0.0493247 0.564583 0.0850179 -1.45178 0.487005 -1.48149 
27 15.6317 7.85337 6.02627 -0.229802 0.165608 0.0654731 1.67077 0.995295 -0.0153085 
36 12.7191 12.6036 6.07335 -0.374927 -0.0920653 0.101458 0.101036 -1.67877 1.59897 
58 13.4383 13.8263 6.08916 -0.258249 -0.391338 -0.080032 1.06709 -1.48995 0.103769 
138 6.32935 13.6109 6.08153 -0.213273 -0.44944 0.0320534 -1.33075 1.58707 -1.47842 
52 10.5797 16.189 6.11903 0.126349 -0.16436 -0.0301275 2.08891 -0.365251 -1.58582 
57 11.2914 14.9801 6.12398 0.630772 -0.449219 -0.00635264 -2.07642 -0.121431 0.22963 
23 17.0415 7.89724 6.02033 0.0670484 -0.121595 -0.0305557 1.87799 -2.30834 0.189617 
43 17.7389 9.11661 6.04167 -0.0930841 0.0923681 0.00574677 0.599274 0.43166 0.213887 
42 15.5901 10.2671 6.09321 0.388192 0.630475 -0.175678 -1.05018 1.23372 -2.58044 
285 19.0943 16.4361 6.08553 -0.197961 -0.271133 -0.0268082 0.990581 1.61252 0.533384 
26 13.4728 8.97477 6.06345 0.330988 0.188367 0.0827525 -2.02395 -1.0418 -0.413481 
22 14.8966 9.05892 6.06978 -0.68636 -1.20214 -0.0840427 0.0468424 1.55001 -1.46064 
53 12.7156 15.025 6.12225 -0.468105 0.423039 -0.0395458 -1.67942 -1.95472 1.17742 
306 19.8036 17.6528 6.08575 0.248021 0.114594 0.202447 -1.44262 -0.770949 1.43325 
192 10.5752 18.6148 6.13514 -0.327015 0.60326 -0.0143584 -0.14359 1.70366 -0.679575 
283 14.8278 18.7572 6.14903 0.190754 -0.766968 -0.102369 1.08812 -0.821158 1.87064 
282 12.6908 19.9047 6.13372 0.119888 -0.320438 -0.0434239 -0.545083 2.0533 -1.44709 
351 15.5083 24.8346 6.04245 0.43872 0.0543493 -0.0680252 -0.235748 -0.934635 -1.35322 
312 13.3926 21.1207 6.09773 0.516962 0.917086 0.0010378 -0.711748 -1.53979 -2.38999 
209 9.15267 18.5759 6.10809 0.231136 -0.212222 0.134002 3.07727 -1.29144 0.35943 
287 13.4198 18.702 6.1332 -0.452566 -0.418138 0.107748 1.61869 0.00410344 1.11045 
342 19.782 22.5015 6.03861 0.332005 -0.150695 0.136208 0.183191 0.656249 -0.648313 
67 8.45117 17.334 6.11979 -0.331661 0.227974 -0.0179501 1.66931 0.639613 -0.599803 
301 14.8156 21.184 6.0787 -0.433944 -0.30435 0.0474226 0.740986 1.55002 -0.693009 
324 19.8072 20.0849 6.10487 -0.648415 -0.410053 -0.0162124 -0.38967 0.888032 0.243113 
193 12.7029 17.47 6.13549 0.40232 -0.121081 -0.000387281 1.50595 -0.274271 0.493443 
197 11.2947 17.4105 6.12741 -0.18205 -0.0310646 0.0205244 1.16585 -0.791864 -0.327559 
304 15.5359 19.9721 6.10791 0.0759326 0.275353 0.112148 2.13579 1.05424 0.188952 
305 17.6767 18.8204 6.17783 -0.217302 -0.349966 -0.167758 0.689614 -0.600634 -0.287841 
329 14.8023 23.6149 6.06389 -0.43951 -0.159902 -0.0958921 0.64713 -0.311337 -1.29836 
303 19.0896 18.8616 6.14928 -0.0420746 0.204272 -0.112638 -1.41217 -1.93712 0.193757 
288 15.5489 17.5343 6.1538 0.110918 0.602296 -0.00894394 -0.398888 1.10287 0.115418 
284 16.9696 17.5891 6.14888 -0.331157 0.148256 0.0997035 -0.637448 -0.385099 -1.37175 
322 19.0781 21.2861 6.09303 -0.1853 -0.20797 -0.0107746 1.6606 -0.526254 -1.18006 
302 16.9445 20.0218 6.12934 0.40263 -0.0666378 0.126384 -0.450039 0.124092 -0.0795231 
330 11.2621 24.749 6.06988 -0.736346 0.28116 -0.119249 -0.648319 0.222593 0.703202 
331 13.3782 23.5715 6.06586 0.557736 -0.290232 0.0256951 -1.99353 1.06077 -0.714297 
295 9.15369 21.0145 6.10784 -0.324734 0.505782 0.0477342 -0.571605 -0.219234 -0.864929 
309 10.5459 23.5221 6.09409 0.370983 -0.357043 -0.083958 -1.90552 -1.73396 2.32795 
328 12.6668 24.7809 6.03647 0.298949 0.598215 0.181251 1.05039 1.98254 -0.328049 
311 11.2659 22.2958 6.10291 -0.360234 0.454351 0.0386181 -0.604577 -1.26613 -0.376798 
207 7.037 19.7424 6.16406 -0.535861 0.235609 -0.185416 -2.15395 -0.0286155 -2.24427 
310 12.672 22.3415 6.10732 0.484157 -0.162394 -0.0980585 -0.348129 -2.75051 -0.266513 
281 10.5667 21.0675 6.13323 -0.210774 -0.216426 -0.114637 -0.867241 1.35005 -0.884824 
137 4.90868 13.5452 6.09765 0 0 0 0 0 0 
132 4.90868 11.0852 6.09765 0 0 0 0 0 0 
125 4.90868 8.62519 6.09765 0 0 0 0 0 0 
50 4.90868 16.0052 6.09765 0 0 0 0 0 0 
126 6.32879 8.69667 6.09506 0.000736419 0.162544 0.00495883 -0.439899 2.30842 -0.483963 
133 6.33039 11.1587 6.10066 0.119794 -0.502347 -0.216925 2.64118 -1.8078 -0.177282 
135 8.46981 10.0103 6.10831 0.223724 -0.491551 -0.0409989 -0.361123 -0.200561 1.90259 
134 7.05591 9.93214 6.07777 -0.498471 0.316743 0.1604 1.15815 0.112715 0.311362 
51 6.32459 16.0521 6.1419 -0.227002 0.354187 -0.27234 -0.751067 0.4178 -0.926871 
139 7.05096 12.3917 6.06506 -0.470855 0.104768 0.158914 -2.0927 0.465782 0.780142 
21 12.7316 10.1677 6.08158 0.117193 0.194321 0.0598454 -0.469719 -0.472529 1.07041 
40 11.2953 12.5381 6.11386 0.807007 -0.22135 -0.0686484 0.476559 -0.564233 1.14384 
37 14.8557 11.4685 6.06887 0.343733 -0.139022 0.0729376 0.0422428 3.12209 -1.20183 
54 14.8467 13.8764 6.05487 0.0687328 0.950514 0.283039 1.11629 0.362397 -1.11618 
200 17.6854 13.9649 6.10683 0.0393293 -0.123259 0.021233 -1.51393 1.4328 -1.10905 
55 16.9895 12.7399 6.11234 -0.234903 -0.109562 -0.267057 -1.34722 0.114178 0.936223 
196 19.0913 14.0201 6.06519 0.543617 -0.834021 0.0264983 0.589523 -0.36055 0.632772 
136 9.20274 8.79227 6.1275 -1.04791 0.349269 -0.106039 -0.559556 2.41217 1.26012 
12 11.3485 7.67545 6.04235 -0.179388 -0.195046 0.262304 -0.0857438 -0.101353 -2.65228 
59 15.5768 12.6906 6.08218 -0.0860803 -0.669915 -0.0741068 -1.20522 -1.74555 -0.530146 
25 11.3178 10.0935 6.12372 0.238968 0.0965138 -0.186039 1.36816 -0.33778 -1.31499 
7 10.6029 8.87094 6.11078 0.727704 -0.179392 -0.0807852 1.19973 0.442875 -1.40958 
60 17.7147 11.5362 6.0561 -0.486681 0.0206155 0.308349 -2.808 2.5273 -0.977926 
8 12.7653 7.7559 6.06197 0.156602 -0.813676 -0.0516861 0.49429 -1.20568 -0.707335 
38 17.0065 10.3152 6.07754 -0.135385 0.161225 -0.0915908 1.88786 0.552544 -1.64726 
141 9.18189 11.2403 6.09703 0.14311 0.259344 -0.0316415 -0.185496 0.873226 0.543781 
20 10.6047 11.2992 6.10151 -0.679756 0.323927 0.135023 -0.15889 -0.733338 0.0221864 
140 8.45986 12.4579 6.07558 0.286496 -0.250264 0.0625183 -0.0860938 -1.12987 -0.343829 
199 15.5424 15.1155 6.12303 0.749413 -0.745745 -0.149896 -0.830396 -2.75641 1.19723 
41 13.4411 11.3977 6.0633 0.0478519 -0.0118366 0.112356 1.68411 -1.56176 -0.924587 
289 17.6829 16.3792 6.12336 0.00799854 0.293259 -0.00981423 -1.91028 1.76135 3.32939 
39 19.1453 9.15837 6.04109 0.408411 0.63944 -0.0192259 1.12558 -0.601727 -0.795534 
56 19.1143 11.5825 6.07877 0.802884 0.176484 -0.227268 -0.356367 1.11009 -0.598568 
195 16.9609 15.1655 6.12814 -0.132477 -0.0269655 -0.065205 0.62392 -1.46042 1.40844 
292 6.31751 23.4169 6.09882 -0.0626665 0.317225 -0.138848 0.300614 1.47331 -0.916335 
361 19.7817 24.9196 5.99881 0.023581 0.00624233 0.06268 -2.97851 -2.14379 1.04377 
293 7.01067 22.1929 6.07349 0.762762 0.336743 0.266292 2.71448 -0.758613 1.29377 
341 19.0637 23.6969 6.02426 -0.169975 0.788583 -0.10673 0.306735 0.0561344 0.565778 
294 8.42804 22.2378 6.08944 0.266627 -0.129005 -0.00975925 -0.447928 -0.929097 -0.741154 
348 16.925 24.8828 6.0235 -0.00720369 -0.486211 0.0204845 1.24711 2.13267 0.962595 
320 9.13604 23.4758 6.08496 -0.381819 0.0770242 0.0319697 0.24087 0.712814 1.15335 
206 6.3266 20.964 6.15089 -0.512966 -0.317016 -0.241135 -0.719802 -1.82583 0.986542 
352 17.6483 23.6705 6.02039 -0.0774172 -0.168188 0.10407 -1.46716 -1.70855 -1.52833 
64 4.90868 18.4652 6.09765 0 0 0 0 0 0 
291 4.90868 23.3852 6.09765 0 0 0 0 0 0 
205 4.90868 20.9252 6.09765 0 0 0 0 0 0 
66 7.02538 17.2923 6.12661 0.539484 -0.152625 0.100004 -1.37503 2.42429 0.00888172 
208 8.43801 19.7939 6.12804 0.556312 -0.392068 0.000882883 0.64115 -1.55454 2.23697 
65 6.32444 18.5168 6.13604 -0.224047 -0.261601 0.0372866 -1.20804 -0.0777614 0.425665 
332 15.5242 22.4068 6.05885 0.031007 -0.0971615 0.0272548 0.814423 -2.37931 -0.848138 
321 16.9399 22.4419 6.05626 -0.129062 0.456457 0.0466576 -1.39379 0.599778 -1.05786 
286 11.2844 19.8507 6.13879 -0.339351 -0.0757139 -0.0721491 0.59943 -0.676191 0.694461 
318 7.01 24.6604 6.05937 -0.0346412 -0.118906 0.237234 -2.50619 1.61545 1.11068 
319 8.41769 24.7007 6.10878 0.388658 -0.353771 -0.224259 1.87362 0.932951 -0.718839 
323 17.661 21.239 6.11933 0.11407 0.0186991 -0.16718 -0.987043 1.94122 0.149727 
363 11.2546 29.6462 6.05353 0.701422 0.337967 -0.0193033 1.09463 0.240342 0.536445 
210 10.5578 30.8708 6.01806 -0.0477952 0.136061 0.0893691 -0.244267 -0.751667 0.70031 
360 9.13389 28.3969 6.094 0.134262 -0.491658 -0.113564 -2.55014 -0.79651 -2.1339 
218 14.8028 30.9287 6.02272 0.226475 -0.177089 0.120935 -0.346375 -2.63917 0.502519 
359 8.42444 29.6155 6.07104 0.259157 0.0676754 -0.0636062 0.513204 2.31307 0.203367 
216 10.5709 33.324 5.97593 0.0876452 -0.334093 0.106706 -0.342485 -0.748179 -0.557581 
222 13.3931 30.8899 6.07095 -0.0887853 0.456616 -0.278418 -1.1216 -0.564317 -1.45606 
211 12.6768 29.672 6.04954 -0.347081 -0.0464341 0.105477 0.170555 2.84054 0.937646 
338 7.00066 27.1184 6.10521 1.0428 0.087132 -0.0790819 1.64549 1.07803 -0.0906858 
252 17.6341 33.4189 6.00474 -0.286644 -0.452973 0.0404849 0.621021 -0.328241 -0.332061 
236 15.5034 32.1605 6.01051 0.175194 -0.365216 0.0114566 -0.798804 -3.17055 1.56202 
220 19.0578 28.577 5.97459 0.212929 -0.199578 0.21232 -1.01439 -0.278528 1.62171 
233 19.0573 31.0025 6.04199 0.465899 0.215301 -0.215008 -2.39408 1.46229 -0.257548 
213 16.9297 27.3156 6.06877 0.353279 -0.0729921 -0.219317 -0.162422 -0.234566 1.84403 
238 19.7861 29.7857 5.99416 -0.846721 0.590748 0.0380681 0.687554 -0.733418 -2.50643 
212 14.7975 28.4856 6.07756 0.297744 0.130814 -0.318361 1.38971 -0.0630227 -1.33709 
223 15.5237 29.7095 6.03662 -0.313581 0.166504 -0.026914 -1.71476 -1.93711 -1.49387 
372 7.03211 32.0223 6.03866 -0.529253 0.028899 0.121693 -0.132438 -1.81729 0.390842 
217 12.6933 32.119 6.03245 -0.222376 0.0226566 -0.00896282 -2.02203 -0.0150505 2.24215 
357 6.31172 30.7946 6.08932 0.375597 0.432479 -0.236171 1.11708 0.3368 0.971331 
237 17.6465 30.9763 6.04588 -0.307184 0.0998077 -0.130408 -1.51689 0.904246 -0.0981087 
232 16.9151 32.1884 6.04101 0.640429 0.160388 -0.110916 0.213863 -0.596221 1.98633 
317 6.30911 25.885 6.07636 0.220999 -0.220992 0.09523 0.0881354 1.55803 2.09008 
219 16.9379 29.7562 6.00427 -0.204061 -0.232351 0.2923 0.0361317 2.50646 -0.415028 
224 17.6511 28.5419 6.02937 -0.289659 -0.277735 -0.0846687 -0.189877 0.447444 1.91953 
381 9.16105 33.2871 5.98588 -0.45515 -0.115225 0.256608 1.53181 0.50796 -1.73512 
248 19.0432 33.4469 6.01581 0.382611 0.0598558 -0.000145808 -2.02752 -1.44838 -0.703225 
253 19.7666 32.2362 6.01915 -0.0143182 -0.31319 0.116612 -0.0661952 -0.587748 0.308805 
221 11.2794 32.0974 6.00021 -0.219298 -0.0501841 0.0471328 -0.226914 -0.958525 -1.75938 
373 8.43706 32.0619 6.00799 0.439136 0.0819851 0.0494873 0.395098 -0.690769 -0.0181818 
374 9.14171 30.8426 6.04114 0.105189 -0.161297 -0.120811 0.445346 1.677 -0.54689 
365 15.5177 27.2699 6.05263 -0.248304 0.108245 0.0947445 -2.69011 -1.26449 0.14752 
364 13.3825 28.4522 6.03728 0.163013 0.0327366 0.0449547 0.141676 -0.214617 -0.247703 
366 17.6457 26.092 6.02065 0.100085 0.705899 0.163161 -1.26427 -0.412319 1.53007 
214 19.0649 26.1332 6.01424 -0.159671 0.259749 -0.101472 -1.73531 -1.78388 -0.669626 
225 19.7732 27.3658 5.99461 -0.527891 -0.181503 -0.0665821 0.602871 0.494702 -0.712633 
231 14.8019 33.3741 5.9789 -0.54865 0.0780664 0.139626 3.77323 1.13541 -0.615086 
347 14.8015 26.0447 6.03477 -0.576805 0.403985 0.0676787 -3.04053 -2.98657 -0.279059 
346 12.6707 27.2294 6.00538 -0.413053 0.169017 0.116241 1.36975 -1.54911 -1.87414 
235 13.3846 33.3586 6.02305 0.272966 -0.355128 -0.198954 -0.664466 0.609291 2.95557 
350 13.3741 26.0172 6.04664 0.541694 -0.52599 -0.224303 -0.907844 1.15077 0.301249 
345 10.5559 28.4275 6.07329 -0.69082 -0.335001 -0.15609 0.650859 -1.62919 -0.17873 
327 10.5351 25.9748 6.0523 0.513554 -0.458495 -0.0466846 -0.463595 0.979772 1.23652 
234 11.2704 34.5537 5.99945 -0.209255 0.0400011 0.0826381 -0.615034 -0.718977 -2.26453 
878 15.5185 41.9213 6.07392 0.375573 1.00971 0.141788 -0.795463 -0.726494 -2.64153 
782 10.5556 43.1168 6.05358 -0.220913 0.225908 0.189081 0.0219992 -0.66414 -1.66483 
274 6.32255 43.0911 6.10706 -0.415831 -0.383711 0.0142663 2.49566 1.55909 1.08958 
270 19.7696 34.6651 6.01176 -0.244122 0.165708 0.00787182 0.277449 -0.889668 2.18038 
874 16.9406 41.9443 6.10061 -0.514809 0.279659 -0.0541222 -0.527906 -0.0646854 0.342388 
791 19.766 37.1014 6.0208 -0.0609232 0.0826417 0.0376315 0.177108 -0.501403 3.32711 
784 14.8056 40.7157 6.04643 -0.225849 -0.79144 0.153735 2.50428 -0.415392 1.80441 
260 6.32127 40.6158 6.10954 -0.071323 0.691948 -0.0207742 -1.20051 0.457567 -1.44477 
789 15.5172 39.4856 6.02524 -0.0208536 0.715538 0.0977219 -1.19015 1.02786 -0.333012 
785 16.9312 39.5115 6.0657 -0.41353 0.161528 -0.0706362 -0.202275 1.38417 1.34469 
896 19.7591 41.9627 6.10762 0.6759 0.518274 -0.131529 -0.945477 -2.61732 0.423059 
875 19.0543 40.7457 6.09404 -0.164427 -0.146539 0.131056 -0.0204534 2.39751 -1.48129 
251 15.5063 34.59 5.96385 0.0754335 0.898859 0.097866 0.016112 -0.866312 2.12437 
384 7.01464 36.9376 6.11733 0.637518 0.506977 0.00614652 0.698272 -2.20287 -1.98912 
790 17.6314 38.3024 6.02464 0.603387 -0.608404 0.0556057 0.870869 -0.0529692 -1.05215 
230 12.6782 34.579 5.99405 0.258852 -0.0282322 0.0356298 -0.469962 0.015322 1.43913 
277 9.14103 40.6652 6.08999 0.052409 -0.122693 -0.0204285 -3.25375 0.432224 0.318304 
879 17.6397 40.7263 6.11166 0.375533 0.0356673 -0.168095 0.0546704 0.124333 -2.39129 
389 9.15541 38.2059 6.15694 0.231974 -0.628445 -0.227835 0.118935 -0.225733 -0.0762166 
244 10.5797 38.2139 6.11716 -0.564767 0.212533 0.0529195 -0.329382 -0.299673 -1.56811 
250 13.3976 35.7987 5.99741 -0.318239 0.294958 0.0375572 -1.03525 -0.119796 -2.60666 
268 15.5183 37.0531 5.97035 -0.543375 0.0370095 0.0249299 1.0572 -2.60474 -4.39439 
261 10.5589 40.6709 6.05924 -0.139257 0.145505 0.133338 -0.395273 0.183669 3.05265 
245 12.6908 37.0251 6.04861 -0.180654 -0.652826 -0.0443568 -0.0626504 1.53683 -0.20077 
264 16.9213 37.0806 5.99024 0.493565 -0.564786 0.00765815 1.03166 -1.80436 0.213808 
247 16.9165 34.629 5.98752 0.118637 -0.0969513 0.00317005 -1.40359 0.026916 2.61819 
246 14.8065 35.8279 5.97459 0.194136 -0.457278 -0.0284073 -1.87946 -1.09898 -0.0525418 
266 11.2735 39.4536 6.10295 -0.492219 -0.335835 -0.0671828 0.142337 -0.134757 -0.368943 
265 19.0505 35.8902 6.01596 -0.0452592 -0.793965 -0.0600247 2.095 -1.31034 0.302882 
263 14.8038 38.2753 5.99552 -0.200169 -0.48245 0.0465978 0.146345 -0.705414 -1.14224 
880 19.7661 39.5308 6.08015 0.0369564 0.0103175 -0.115691 1.09497 -0.780084 2.54671 
788 13.3891 40.6894 6.09839 0.121991 -0.0879568 -0.298581 -0.743042 0.983491 0.285378 
269 17.6315 35.8443 5.9988 0.049568 0.882196 -0.0789719 0.277639 -1.79964 2.20985 
786 19.05 38.3126 6.05439 -0.09372 0.133734 -0.0758059 -0.508899 -1.08109 1.85332 
783 12.68 41.9075 6.03767 0.0280177 0.302023 0.374473 -2.8078 0.316215 0.203861 
267 13.388 38.2469 6.02901 0.242172 0.209404 0.040343 -0.423115 -2.34973 1.31935 
262 12.6756 39.4631 6.07824 0.578517 0.283222 -0.0574161 0.784668 0.698744 -0.52538 
787 11.2637 41.8976 6.07467 0.161311 -0.0879297 -0.173248 -0.532613 -1.24934 -0.447371 