ITEM: TIMESTEP
9700
ITEM: NUMBER OF ATOMS
4798
ITEM: BOX BOUNDS ff ff ff
-10.3577 110.358
-10.0998 131.9
-100.402 112.598
ITEM: ATOMS id x y z fx fy fz vx vy vz 
72 -0.062301 2.4752 6.09765 0 0 0 0 0 0 
110 4.19854 7.39519 6.09765 0 0 0 0 0 0 
109 2.77826 7.39519 6.09765 0 0 0 0 0 0 
93 4.19854 4.9352 6.09765 0 0 0 0 0 0 
92 2.77826 4.9352 6.09765 0 0 0 0 0 0 
91 2.06812 6.16519 6.09765 0 0 0 0 0 0 
87 0.647839 6.16519 6.09765 0 0 0 0 0 0 
86 -0.062301 7.39519 6.09765 0 0 0 0 0 0 
81 4.19854 2.4752 6.09765 0 0 0 0 0 0 
80 2.77826 2.4752 6.09765 0 0 0 0 0 0 
79 2.06812 3.7052 6.09765 0 0 0 0 0 0 
78 0.647839 3.7052 6.09765 0 0 0 0 0 0 
77 -0.062301 4.9352 6.09765 0 0 0 0 0 0 
76 4.19854 0.015197 6.09765 0 0 0 0 0 0 
75 2.77826 0.015197 6.09765 0 0 0 0 0 0 
74 2.06812 1.2452 6.09765 0 0 0 0 0 0 
73 0.647839 1.2452 6.09765 0 0 0 0 0 0 
6 -0.062301 12.3152 6.09765 0 0 0 0 0 0 
131 4.19854 12.3152 6.09765 0 0 0 0 0 0 
130 2.77826 12.3152 6.09765 0 0 0 0 0 0 
124 4.19854 9.85519 6.09765 0 0 0 0 0 0 
123 2.77826 9.85519 6.09765 0 0 0 0 0 0 
122 2.06812 11.0852 6.09765 0 0 0 0 0 0 
117 0.647839 11.0852 6.09765 0 0 0 0 0 0 
108 2.06812 8.62519 6.09765 0 0 0 0 0 0 
100 0.647839 8.62519 6.09765 0 0 0 0 0 0 
99 -0.062301 9.85519 6.09765 0 0 0 0 0 0 
34 4.19854 14.7752 6.09765 0 0 0 0 0 0 
33 2.77826 14.7752 6.09765 0 0 0 0 0 0 
32 2.06812 16.0052 6.09765 0 0 0 0 0 0 
31 0.647839 16.0052 6.09765 0 0 0 0 0 0 
19 2.06812 13.5452 6.09765 0 0 0 0 0 0 
18 0.647839 13.5452 6.09765 0 0 0 0 0 0 
17 -0.062301 14.7752 6.09765 0 0 0 0 0 0 
300 4.19854 24.6152 6.09765 0 0 0 0 0 0 
299 2.77826 24.6152 6.09765 0 0 0 0 0 0 
204 4.19854 22.1552 6.09765 0 0 0 0 0 0 
203 2.77826 22.1552 6.09765 0 0 0 0 0 0 
202 2.06812 23.3852 6.09765 0 0 0 0 0 0 
191 0.647839 23.3852 6.09765 0 0 0 0 0 0 
190 -0.062301 24.6152 6.09765 0 0 0 0 0 0 
71 2.06812 20.9252 6.09765 0 0 0 0 0 0 
70 0.647839 20.9252 6.09765 0 0 0 0 0 0 
69 -0.062301 22.1552 6.09765 0 0 0 0 0 0 
63 4.19854 19.6952 6.09765 0 0 0 0 0 0 
62 2.77826 19.6952 6.09765 0 0 0 0 0 0 
49 4.19854 17.2352 6.09765 0 0 0 0 0 0 
48 2.77826 17.2352 6.09765 0 0 0 0 0 0 
47 2.06812 18.4652 6.09765 0 0 0 0 0 0 
46 0.647839 18.4652 6.09765 0 0 0 0 0 0 
45 -0.062301 19.6952 6.09765 0 0 0 0 0 0 
30 -0.062301 17.2352 6.09765 0 0 0 0 0 0 
355 4.19854 31.9952 6.09765 0 0 0 0 0 0 
354 2.77826 31.9952 6.09765 0 0 0 0 0 0 
353 2.06812 33.2252 6.09765 0 0 0 0 0 0 
344 0.647839 33.2252 6.09765 0 0 0 0 0 0 
335 4.19854 29.5352 6.09765 0 0 0 0 0 0 
334 2.77826 29.5352 6.09765 0 0 0 0 0 0 
333 2.06812 30.7652 6.09765 0 0 0 0 0 0 
326 0.647839 30.7652 6.09765 0 0 0 0 0 0 
325 -0.062301 31.9952 6.09765 0 0 0 0 0 0 
315 4.19854 27.0752 6.09765 0 0 0 0 0 0 
314 2.77826 27.0752 6.09765 0 0 0 0 0 0 
313 2.06812 28.3052 6.09765 0 0 0 0 0 0 
308 0.647839 28.3052 6.09765 0 0 0 0 0 0 
307 -0.062301 29.5352 6.09765 0 0 0 0 0 0 
298 2.06812 25.8452 6.09765 0 0 0 0 0 0 
297 0.647839 25.8452 6.09765 0 0 0 0 0 0 
296 -0.062301 27.0752 6.09765 0 0 0 0 0 0 
215 -0.062301 36.9152 6.09765 0 0 0 0 0 0 
376 4.19854 36.9152 6.09765 0 0 0 0 0 0 
375 2.77826 36.9152 6.09765 0 0 0 0 0 0 
369 4.19854 34.4552 6.09765 0 0 0 0 0 0 
368 2.77826 34.4552 6.09765 0 0 0 0 0 0 
367 2.06812 35.6852 6.09765 0 0 0 0 0 0 
362 0.647839 35.6852 6.09765 0 0 0 0 0 0 
343 -0.062301 34.4552 6.09765 0 0 0 0 0 0 
258 4.19854 41.8352 6.09765 0 0 0 0 0 0 
257 2.77826 41.8352 6.09765 0 0 0 0 0 0 
256 2.06812 43.0652 6.09765 0 0 0 0 0 0 
255 0.647839 43.0652 6.09765 0 0 0 0 0 0 
243 4.19854 39.3752 6.09765 0 0 0 0 0 0 
242 2.77826 39.3752 6.09765 0 0 0 0 0 0 
241 2.06812 40.6052 6.09765 0 0 0 0 0 0 
240 0.647839 40.6052 6.09765 0 0 0 0 0 0 
239 -0.062301 41.8352 6.09765 0 0 0 0 0 0 
228 2.06812 38.1452 6.09765 0 0 0 0 0 0 
227 0.647839 38.1452 6.09765 0 0 0 0 0 0 
226 -0.062301 39.3752 6.09765 0 0 0 0 0 0 
254 -0.062301 44.2952 6.09765 0 0 0 0 0 0 
905 4.19854 51.6752 6.09765 0 0 0 0 0 0 
904 2.77826 51.6752 6.09765 0 0 0 0 0 0 
890 4.19854 49.2152 6.09765 0 0 0 0 0 0 
889 2.77826 49.2152 6.09765 0 0 0 0 0 0 
888 2.06812 50.4452 6.09765 0 0 0 0 0 0 
887 0.647839 50.4452 6.09765 0 0 0 0 0 0 
886 -0.062301 51.6752 6.09765 0 0 0 0 0 0 
794 4.19854 46.7552 6.09765 0 0 0 0 0 0 
793 2.77826 46.7552 6.09765 0 0 0 0 0 0 
792 2.06812 47.9852 6.09765 0 0 0 0 0 0 
781 0.647839 47.9852 6.09765 0 0 0 0 0 0 
780 -0.062301 49.2152 6.09765 0 0 0 0 0 0 
280 2.06812 45.5252 6.09765 0 0 0 0 0 0 
279 0.647839 45.5252 6.09765 0 0 0 0 0 0 
278 -0.062301 46.7552 6.09765 0 0 0 0 0 0 
272 4.19854 44.2952 6.09765 0 0 0 0 0 0 
271 2.77826 44.2952 6.09765 0 0 0 0 0 0 
959 4.19854 59.0552 6.09765 0 0 0 0 0 0 
958 2.77826 59.0552 6.09765 0 0 0 0 0 0 
957 2.06812 60.2852 6.09765 0 0 0 0 0 0 
952 0.647839 60.2852 6.09765 0 0 0 0 0 0 
945 4.19854 56.5952 6.09765 0 0 0 0 0 0 
944 2.77826 56.5952 6.09765 0 0 0 0 0 0 
943 2.06812 57.8252 6.09765 0 0 0 0 0 0 
934 0.647839 57.8252 6.09765 0 0 0 0 0 0 
933 -0.062301 59.0552 6.09765 0 0 0 0 0 0 
925 4.19854 54.1352 6.09765 0 0 0 0 0 0 
924 2.77826 54.1352 6.09765 0 0 0 0 0 0 
923 2.06812 55.3652 6.09765 0 0 0 0 0 0 
916 0.647839 55.3652 6.09765 0 0 0 0 0 0 
915 -0.062301 56.5952 6.09765 0 0 0 0 0 0 
903 2.06812 52.9052 6.09765 0 0 0 0 0 0 
898 0.647839 52.9052 6.09765 0 0 0 0 0 0 
897 -0.062301 54.1352 6.09765 0 0 0 0 0 0 
805 -0.062301 61.5152 6.09765 0 0 0 0 0 0 
966 4.19854 61.5152 6.09765 0 0 0 0 0 0 
965 2.77826 61.5152 6.09765 0 0 0 0 0 0 
862 4.19854 68.8952 6.09765 0 0 0 0 0 0 
861 2.77826 68.8952 6.09765 0 0 0 0 0 0 
848 4.19854 66.4352 6.09765 0 0 0 0 0 0 
847 2.77826 66.4352 6.09765 0 0 0 0 0 0 
846 2.06812 67.6652 6.09765 0 0 0 0 0 0 
845 0.647839 67.6652 6.09765 0 0 0 0 0 0 
844 -0.062301 68.8952 6.09765 0 0 0 0 0 0 
833 4.19854 63.9752 6.09765 0 0 0 0 0 0 
832 2.77826 63.9752 6.09765 0 0 0 0 0 0 
831 2.06812 65.2052 6.09765 0 0 0 0 0 0 
830 0.647839 65.2052 6.09765 0 0 0 0 0 0 
829 -0.062301 66.4352 6.09765 0 0 0 0 0 0 
818 2.06812 62.7452 6.09765 0 0 0 0 0 0 
817 0.647839 62.7452 6.09765 0 0 0 0 0 0 
816 -0.062301 63.9752 6.09765 0 0 0 0 0 0 
1828 4.19854 76.2752 6.09765 0 0 0 0 0 0 
1827 2.77826 76.2752 6.09765 0 0 0 0 0 0 
1826 2.06812 77.5052 6.09765 0 0 0 0 0 0 
1821 0.647839 77.5052 6.09765 0 0 0 0 0 0 
1813 4.19854 73.8152 6.09765 0 0 0 0 0 0 
1812 2.77826 73.8152 6.09765 0 0 0 0 0 0 
1811 2.06812 75.0452 6.09765 0 0 0 0 0 0 
1810 0.647839 75.0452 6.09765 0 0 0 0 0 0 
1809 -0.062301 76.2752 6.09765 0 0 0 0 0 0 
1717 4.19854 71.3552 6.09765 0 0 0 0 0 0 
1716 2.77826 71.3552 6.09765 0 0 0 0 0 0 
1715 2.06812 72.5852 6.09765 0 0 0 0 0 0 
1704 0.647839 72.5852 6.09765 0 0 0 0 0 0 
1703 -0.062301 73.8152 6.09765 0 0 0 0 0 0 
870 2.06812 70.1252 6.09765 0 0 0 0 0 0 
869 0.647839 70.1252 6.09765 0 0 0 0 0 0 
868 -0.062301 71.3552 6.09765 0 0 0 0 0 0 
1728 -0.062301 86.1152 6.09765 0 0 0 0 0 0 
1889 4.19854 86.1152 6.09765 0 0 0 0 0 0 
1888 2.77826 86.1152 6.09765 0 0 0 0 0 0 
1882 4.19854 83.6552 6.09765 0 0 0 0 0 0 
1881 2.77826 83.6552 6.09765 0 0 0 0 0 0 
1880 2.06812 84.8852 6.09765 0 0 0 0 0 0 
1875 0.647839 84.8852 6.09765 0 0 0 0 0 0 
1868 4.19854 81.1952 6.09765 0 0 0 0 0 0 
1867 2.77826 81.1952 6.09765 0 0 0 0 0 0 
1866 2.06812 82.4252 6.09765 0 0 0 0 0 0 
1857 0.647839 82.4252 6.09765 0 0 0 0 0 0 
1856 -0.062301 83.6552 6.09765 0 0 0 0 0 0 
1848 4.19854 78.7352 6.09765 0 0 0 0 0 0 
1847 2.77826 78.7352 6.09765 0 0 0 0 0 0 
1846 2.06812 79.9652 6.09765 0 0 0 0 0 0 
1839 0.647839 79.9652 6.09765 0 0 0 0 0 0 
1838 -0.062301 81.1952 6.09765 0 0 0 0 0 0 
1820 -0.062301 78.7352 6.09765 0 0 0 0 0 0 
1741 2.06812 87.3452 6.09765 0 0 0 0 0 0 
1740 0.647839 87.3452 6.09765 0 0 0 0 0 0 
2677 4.19854 95.9552 6.09765 0 0 0 0 0 0 
2676 2.77826 95.9552 6.09765 0 0 0 0 0 0 
1793 2.06812 94.7252 6.09765 0 0 0 0 0 0 
1792 0.647839 94.7252 6.09765 0 0 0 0 0 0 
1791 -0.062301 95.9552 6.09765 0 0 0 0 0 0 
1785 4.19854 93.4952 6.09765 0 0 0 0 0 0 
1784 2.77826 93.4952 6.09765 0 0 0 0 0 0 
1771 4.19854 91.0352 6.09765 0 0 0 0 0 0 
1770 2.77826 91.0352 6.09765 0 0 0 0 0 0 
1769 2.06812 92.2652 6.09765 0 0 0 0 0 0 
1768 0.647839 92.2652 6.09765 0 0 0 0 0 0 
1767 -0.062301 93.4952 6.09765 0 0 0 0 0 0 
1756 4.19854 88.5752 6.09765 0 0 0 0 0 0 
1755 2.77826 88.5752 6.09765 0 0 0 0 0 0 
1754 2.06812 89.8052 6.09765 0 0 0 0 0 0 
1753 0.647839 89.8052 6.09765 0 0 0 0 0 0 
1752 -0.062301 91.0352 6.09765 0 0 0 0 0 0 
1739 -0.062301 88.5752 6.09765 0 0 0 0 0 0 
2663 -0.062301 98.4152 6.09765 0 0 0 0 0 0 
2808 4.19854 103.335 6.09765 0 0 0 0 0 0 
2807 2.77826 103.335 6.09765 0 0 0 0 0 0 
2806 2.06812 104.565 6.09765 0 0 0 0 0 0 
2799 0.647839 104.565 6.09765 0 0 0 0 0 0 
2788 4.19854 100.875 6.09765 0 0 0 0 0 0 
2787 2.77826 100.875 6.09765 0 0 0 0 0 0 
2786 2.06812 102.105 6.09765 0 0 0 0 0 0 
2781 0.647839 102.105 6.09765 0 0 0 0 0 0 
2780 -0.062301 103.335 6.09765 0 0 0 0 0 0 
2773 4.19854 98.4152 6.09765 0 0 0 0 0 0 
2772 2.77826 98.4152 6.09765 0 0 0 0 0 0 
2771 2.06812 99.6452 6.09765 0 0 0 0 0 0 
2770 0.647839 99.6452 6.09765 0 0 0 0 0 0 
2769 -0.062301 100.875 6.09765 0 0 0 0 0 0 
2675 2.06812 97.1852 6.09765 0 0 0 0 0 0 
2664 0.647839 97.1852 6.09765 0 0 0 0 0 0 
2849 4.19854 110.715 6.09765 0 0 0 0 0 0 
2848 2.77826 110.715 6.09765 0 0 0 0 0 0 
2842 4.19854 108.255 6.09765 0 0 0 0 0 0 
2841 2.77826 108.255 6.09765 0 0 0 0 0 0 
2840 2.06812 109.485 6.09765 0 0 0 0 0 0 
2835 0.647839 109.485 6.09765 0 0 0 0 0 0 
2828 4.19854 105.795 6.09765 0 0 0 0 0 0 
2827 2.77826 105.795 6.09765 0 0 0 0 0 0 
2826 2.06812 107.025 6.09765 0 0 0 0 0 0 
2817 0.647839 107.025 6.09765 0 0 0 0 0 0 
2816 -0.062301 108.255 6.09765 0 0 0 0 0 0 
2798 -0.062301 105.795 6.09765 0 0 0 0 0 0 
2716 4.19854 113.175 6.09765 0 0 0 0 0 0 
2715 2.77826 113.175 6.09765 0 0 0 0 0 0 
2701 2.06812 111.945 6.09765 0 0 0 0 0 0 
2700 0.647839 111.945 6.09765 0 0 0 0 0 0 
2699 -0.062301 113.175 6.09765 0 0 0 0 0 0 
2688 -0.062301 110.715 6.09765 0 0 0 0 0 0 
2712 -0.062301 115.635 6.09765 0 0 0 0 0 0 
3636 4.19854 120.555 6.09765 0 0 0 0 0 0 
3635 2.77826 120.555 6.09765 0 0 0 0 0 0 
3634 2.06812 121.785 6.09765 0 0 0 0 0 0 
3623 0.647839 121.785 6.09765 0 0 0 0 0 0 
2753 2.06812 119.325 6.09765 0 0 0 0 0 0 
2752 0.647839 119.325 6.09765 0 0 0 0 0 0 
2751 -0.062301 120.555 6.09765 0 0 0 0 0 0 
2745 4.19854 118.095 6.09765 0 0 0 0 0 0 
2744 2.77826 118.095 6.09765 0 0 0 0 0 0 
2731 4.19854 115.635 6.09765 0 0 0 0 0 0 
2730 2.77826 115.635 6.09765 0 0 0 0 0 0 
2729 2.06812 116.865 6.09765 0 0 0 0 0 0 
2728 0.647839 116.865 6.09765 0 0 0 0 0 0 
2727 -0.062301 118.095 6.09765 0 0 0 0 0 0 
2714 2.06812 114.405 6.09765 0 0 0 0 0 0 
2713 0.647839 114.405 6.09765 0 0 0 0 0 0 
85 8.55537 0.351126 5.86269 -0.0346423 0.233505 -0.0134475 -0.422543 0.773856 0.671478 
24 19.1779 6.78463 6.04017 1.02336 -0.166328 0.0298007 -1.27222 -3.30658 -0.300916 
9 14.9011 6.65853 6.03721 0.549379 -0.346564 -0.154246 0.237018 -3.05433 -0.700517 
114 8.46958 5.15073 6.1005 0.0230544 -0.0190303 -0.0168926 2.79041 -1.02073 0.675766 
2 12.7777 5.36049 6.09109 0.0316087 -0.410493 -0.0906895 -0.874456 -1.22381 0.107512 
113 7.03796 5.04499 6.12555 1.26389 0.34411 -0.135918 -2.19299 0.153795 0.125224 
13 13.4873 6.57962 6.0352 0.0341227 0.0869063 0.189348 1.70122 -0.358344 2.50376 
28 17.7814 6.72864 6.01874 -1.26154 0.1595 -0.152489 1.65686 -2.60889 1.99908 
98 9.2829 1.55182 6.00908 1.14877 -0.0861384 0.326935 0.670035 -0.0588332 0.273152 
106 13.5947 1.75942 6.30826 -0.28944 0.430321 0.113525 0.655488 -0.713143 0.864983 
102 12.8196 2.94399 6.16922 0.0159806 -0.228277 -0.028891 -0.886242 -2.68821 -1.40708 
105 11.3813 2.87996 6.09194 1.07919 -1.31821 0.17788 -0.402138 0.489908 0.667328 
10 17.0634 5.50788 6.0534 0.159721 0.369121 0.0432141 -0.0587062 -1.88936 1.04054 
5 19.2402 1.95812 6.23658 0.383161 -0.323927 -0.0183898 0.322224 -0.083697 -0.719738 
119 13.5255 4.16245 6.13132 0.265971 0.542616 -0.24652 0.00647747 -1.7425 0.809655 
11 19.2037 4.37251 6.14846 0.257109 -0.0934582 -0.159018 0.622231 -2.31018 0.483345 
14 15.6517 5.46538 6.06591 -0.355649 -0.394339 -0.0175708 0.222877 -0.306194 2.4134 
120 15.6837 3.03008 6.15948 0.247224 1.06964 0.131029 0.905591 0.165134 1.72332 
15 17.7928 4.3114 6.11646 0.132247 0.419397 0.136373 -0.436051 1.70493 2.38962 
3 14.9545 4.23071 6.09447 -0.671536 0.110324 0.124008 -0.788659 -1.43974 2.30397 
103 14.9851 1.82525 6.2539 -0.431727 -0.497261 -0.267817 -0.193264 -0.142552 -0.775542 
128 8.48287 7.57819 6.1158 -0.698908 0.83985 -0.282588 -0.354392 0.191337 -0.88471 
4 17.0956 3.10014 6.19994 0.216006 -0.202649 0.00369099 0.0529643 -1.35869 0.270046 
127 7.06428 7.49173 6.11421 -0.728652 -0.0991274 0.0349805 1.28198 -0.105752 0.046084 
101 10.6406 4.04656 6.10109 -0.357764 1.04287 -0.10605 1.17538 -2.22366 2.94721 
88 10.691 1.63462 6.15047 -0.378935 -0.241443 -0.138317 0.723218 -2.99932 0.652595 
83 6.35975 1.36437 6.14501 -0.46949 0.21071 -0.207174 -3.32998 1.06618 1.78985 
89 12.859 0.597885 6.59569 -0.218283 -0.152161 -0.0601245 1.28494 1.54445 3.67729 
115 9.22038 3.95878 6.10772 0.177149 0.548833 -0.0912914 -0.802985 -1.48502 2.68191 
96 7.08468 2.62458 6.13306 -0.343886 -0.067057 0.0680465 -1.0961 -1.02991 0.176746 
118 11.3567 5.27309 6.05702 0.0837993 -0.233337 0.116727 0.373323 -0.59601 0.5174 
97 8.52275 2.73944 6.09962 -0.608324 -0.720949 -0.180078 -2.65851 2.77216 -0.133861 
95 6.33296 3.82089 6.12666 -0.238473 -0.803292 -0.0360555 -0.707781 -0.916585 1.24863 
129 9.192 6.38467 6.05916 0.733422 -0.786432 0.168577 -0.72953 -2.75844 -0.747921 
1 10.6176 6.46068 6.04054 -0.295662 0.549575 0.020473 0.514396 -0.12152 -0.850142 
112 6.32796 6.24794 6.11267 -0.178309 0.725723 0.0698351 -1.40675 -1.28724 1.3037 
94 4.90868 3.7052 6.09765 0 0 0 0 0 0 
111 4.90868 6.16519 6.09765 0 0 0 0 0 0 
82 4.90868 1.2452 6.09765 0 0 0 0 0 0 
90 11.5081 0.491214 6.34144 -0.00178962 0.376486 -0.0255435 1.31472 -0.478826 -1.50889 
84 7.21342 0.232584 6.15388 -0.104107 0.018207 0.0163892 0.582257 2.08271 1.22314 
121 17.8538 1.91706 6.28487 0.0899272 -0.223524 -0.121113 1.21724 -0.0656992 1.74657 
107 15.7705 0.664453 6.17869 -0.24272 -0.170192 0.00939302 -0.279912 -0.796381 -0.986059 
104 17.1239 0.716815 6.35686 0.427089 0.000395456 0.123839 2.2841 -0.960275 0.332481 
68 9.15394 16.1419 6.13196 0.703368 0.414217 -0.218952 1.09126 1.05484 -0.721545 
35 10.5999 13.7806 6.06994 -0.302584 -0.568517 -0.125193 2.79041 -1.36805 1.52908 
144 9.18556 13.7048 6.07877 -0.498886 0.134541 0.0422012 -0.500717 0.437023 0.99976 
143 8.44741 14.9144 6.10018 0.570847 -0.326589 0.0943763 0.398043 0.770477 1.29075 
142 7.04215 14.8506 6.10409 -0.5161 -0.23765 0.0926569 0.0954334 1.18226 -0.567482 
194 14.837 16.3374 6.04897 0.807528 0.401675 -0.0851142 0.11181 0.285114 -1.70571 
198 13.4396 16.2745 6.07668 -0.869072 -0.547306 -0.196222 -0.646484 -1.0935 0.0433309 
27 15.6302 7.86882 5.98474 -1.31119 0.269822 0.0302785 -0.773887 1.8274 -0.784328 
36 12.7271 12.6268 6.00677 0.609656 -0.410023 0.105562 1.40869 0.41538 -0.394596 
58 13.4466 13.8452 6.02702 -0.0281251 -0.108913 -0.184216 1.06331 -1.12563 2.20922 
138 6.32524 13.6069 6.1276 0.259829 0.0273615 -0.168532 -2.03213 -2.01115 0.79436 
52 10.5911 16.218 6.1033 -1.36664 -0.595966 -0.0193675 -0.0202399 0.415163 -0.715342 
57 11.2986 15.0113 6.05888 0.460534 -0.520493 0.0423637 2.61448 0.231508 -0.0316271 
23 17.0292 7.92908 5.94851 1.07511 -0.467205 0.233216 1.742 2.42543 -0.710042 
43 17.7536 9.13773 5.95157 -0.227041 0.10282 -0.0014376 3.40695 0.0873159 -0.398875 
42 15.6129 10.2728 5.98051 -0.54326 0.709346 0.118442 0.264092 0.244631 0.979994 
285 19.108 16.4496 5.96406 -0.318264 0.105585 0.118903 0.00800679 2.57511 -0.0776025 
26 13.4661 8.99825 6.053 0.0206694 0.197498 -0.238147 -2.21777 -0.122197 -1.56516 
22 14.8826 9.07161 5.98494 0.43302 -0.755172 0.166067 -1.64593 2.645 1.55445 
53 12.7136 15.0394 6.01107 0.387209 1.0751 0.373704 -0.0404717 0.418312 -0.658069 
55 16.9938 12.7496 5.98933 0.42592 0.584848 -0.00874228 -0.0961308 0.786477 -0.842592 
136 9.19399 8.81842 6.07179 -0.519882 -0.00852568 0.0780303 0.0827168 0.921754 -1.17959 
12 11.3294 7.69688 6.04255 0.135047 -0.182291 -0.0619729 1.16473 -0.774871 -1.15015 
59 15.5829 12.7026 6.00813 0.0646549 -0.0934063 -0.00686277 -0.365301 -0.166315 -2.27963 
25 11.3186 10.1225 6.07251 0.153909 0.463151 -0.256356 -0.827217 0.646461 -0.676406 
7 10.5989 8.89829 6.0346 0.452595 0.000481557 0.207842 1.31417 -0.633786 -1.95216 
60 17.7326 11.5557 5.93258 -0.380416 0.0324163 0.310359 1.23261 -4.66219 1.93307 
8 12.7502 7.77378 6.04603 -0.12149 0.136139 -0.0211033 -2.54748 1.01631 1.70222 
38 17.0243 10.3388 5.96664 -0.0447095 -0.162719 -0.111121 -3.41754 1.30515 -0.213541 
141 9.19035 11.2562 6.10266 -0.563019 0.47602 -0.194466 -1.65349 0.86845 3.45092 
20 10.5944 11.3372 6.0605 0.391447 -0.408883 0.072372 1.39258 0.16656 1.2646 
140 8.46447 12.4742 6.06635 0.335906 -0.519572 0.182406 -1.87624 -1.62985 0.789884 
126 6.32367 8.70388 6.11725 0.69302 -0.0961149 0.0459091 0.528718 -1.10105 1.10596 
41 13.4668 11.4204 6.01809 -0.7565 0.147928 0.0305161 0.915454 -1.05012 -0.952532 
133 6.32255 11.1504 6.12926 0.473351 0.26298 -0.0616217 0.187501 -1.25918 -2.25601 
135 8.46656 10.0312 6.09184 0.0338728 -0.48183 0.15783 1.34889 0.863923 -0.492218 
39 19.1627 9.18967 5.959 0.360047 -0.430114 0.121159 -0.710904 -0.301948 -0.0912182 
51 6.32596 16.0688 6.09131 -0.332242 -0.375358 -0.00169745 1.99227 0.660774 -2.02964 
200 17.7042 13.9869 6.01847 0.0523187 -0.73774 -0.166249 -2.49345 -0.455774 -0.471435 
139 7.05403 12.3858 6.09894 -0.647373 0.37557 0.111782 -1.09447 1.01706 0.310791 
21 12.7369 10.2083 6.03824 0.0492973 -0.661258 0.0973801 0.386132 1.59906 0.583519 
40 11.3172 12.5585 6.03083 -0.176164 0.444422 0.114331 -0.10305 0.503969 2.41942 
195 16.9793 15.1879 5.99829 -0.0966782 0.0801976 0.0470297 -0.736961 0.805167 -4.85575 
37 14.8736 11.4768 6.0242 0.503106 0.0764627 -0.205516 -2.30991 -1.45265 1.24586 
54 14.8675 13.9111 6.01359 -0.679019 -0.200724 -0.00738601 -0.884529 -2.56734 1.09132 
196 19.1241 14.0204 6.00702 -0.194684 0.630452 -0.0522073 0.286139 1.0775 -0.509246 
56 19.1386 11.6064 5.97142 0.517867 -0.0760074 -0.101822 2.17855 -2.29177 0.331934 
134 7.0523 9.94043 6.14643 -0.371981 0.000350941 -0.259708 2.18636 0.198367 -2.10626 
281 10.5724 21.0887 6.09862 -0.360858 -0.434466 -0.264888 -1.37938 2.2363 -1.72943 
310 12.6739 22.3613 6.08626 0.751752 0.0182035 -0.0694803 0.257515 -0.274529 0.144122 
192 10.591 18.6368 6.07909 -0.788858 0.0379738 0.00873215 -4.12962 0.617195 1.50621 
283 14.836 18.7597 6.05367 -0.500517 0.358447 -0.153351 -1.35772 -0.679638 -0.710621 
282 12.6881 19.9168 6.04044 0.962519 -0.324774 0.213044 0.384897 -0.726097 1.24352 
351 15.516 24.8533 6.07148 -0.191771 0.268581 -0.156801 1.15966 0.546259 0.374455 
312 13.3912 21.1482 6.06702 -0.054505 -0.0264208 -0.13392 0.741568 -1.4351 1.02286 
209 9.165 18.5767 6.0855 0.0781889 0.445305 -0.126133 2.32766 0.0582344 0.838384 
287 13.4256 18.7003 6.06322 -0.450928 0.529585 0.0504207 -1.52347 -1.92637 -0.0620103 
67 8.42941 17.3548 6.08049 0.606926 0.0415863 0.159195 -0.169164 2.2426 1.46403 
301 14.802 21.1909 6.01284 0.254053 0.666123 0.167685 -0.831397 0.739628 0.618924 
193 12.7173 17.4747 6.10943 -0.34032 0.298794 -0.249684 -0.859255 1.59019 1.06846 
197 11.2985 17.4262 6.08719 0.644031 0.384467 0.153953 0.888902 0.0239044 1.99787 
329 14.8034 23.6309 6.02205 0.270462 -0.157213 0.224353 -0.28603 1.4787 0.479656 
284 16.9729 17.6067 6.04779 -0.0906391 0.230586 -0.098071 -0.423692 1.00743 0.408445 
331 13.3966 23.5805 6.07687 -0.274287 0.185904 -0.131068 -0.789986 2.40346 1.50758 
295 9.15009 21.022 6.05171 0.779645 0.760247 0.174849 -0.445733 0.740174 -0.334785 
311 11.2746 22.3227 6.08254 -0.28378 -0.510172 0.16868 -1.69548 -1.09714 -0.480354 
286 11.2904 19.8684 6.07776 -0.533563 0.204534 -0.00263692 1.67462 1.00339 0.66216 
208 8.45513 19.8052 6.06901 -0.666288 -0.973669 0.100493 0.965891 1.48487 0.794542 
66 7.01842 17.3031 6.09257 0.388683 -0.0598093 0.00441344 -2.35185 -1.26253 2.00609 
206 6.32368 20.9779 6.10004 -0.0646737 -0.189748 0.0440681 0.00634427 1.47249 -1.84949 
294 8.44636 22.2406 6.05063 -0.440259 0.0661878 0.184371 1.01858 0.718291 -0.629242 
293 7.03152 22.2122 6.10648 -0.086884 0.0527982 -0.180654 -0.153264 -2.87281 0.217227 
318 7.02651 24.672 6.1519 0.36732 -0.192077 -0.223582 -2.89262 0.797136 1.39182 
332 15.5286 22.4203 6.0172 -0.81999 -0.313074 0.0162803 -0.29616 -0.842711 -2.99402 
292 6.32129 23.4411 6.10601 0.120557 -0.481003 0.13146 -0.723345 -3.23816 -0.0924993 
320 9.13546 23.4726 6.09128 1.13796 0.348397 0.105672 -0.0963131 0.439721 -0.101227 
137 4.90868 13.5452 6.09765 0 0 0 0 0 0 
132 4.90868 11.0852 6.09765 0 0 0 0 0 0 
125 4.90868 8.62519 6.09765 0 0 0 0 0 0 
50 4.90868 16.0052 6.09765 0 0 0 0 0 0 
199 15.5619 15.1393 6.02461 0.451429 -0.239283 -0.0235056 0.514234 0.704907 2.15559 
289 17.6966 16.4058 5.98783 -0.140374 -0.0493262 0.0772131 1.97514 0.367087 0.565545 
319 8.44995 24.6979 6.13674 -0.753051 0.361577 0.0131043 0.59128 1.5663 2.59445 
330 11.2677 24.7563 6.0963 -0.140372 0.359051 0.0503586 2.46649 2.6696 -0.516116 
64 4.90868 18.4652 6.09765 0 0 0 0 0 0 
291 4.90868 23.3852 6.09765 0 0 0 0 0 0 
205 4.90868 20.9252 6.09765 0 0 0 0 0 0 
342 19.7875 22.5249 6.1057 0.147715 0.563375 0.0407862 2.81261 -0.648375 -1.91941 
324 19.7911 20.1015 6.0875 0.485903 0.101848 0.151869 -1.11249 -0.284811 0.0142782 
304 15.5183 19.9892 6.04287 0.593316 -0.14276 -0.00942603 -0.514793 -1.50506 -0.961834 
305 17.6692 18.8356 6.09641 0.0171567 -0.369909 -0.22964 -0.45562 1.43152 0.775702 
303 19.0815 18.892 6.08429 0.148656 -1.00143 -0.153346 0.203162 -0.71599 3.75813 
288 15.5593 17.5703 6.00909 -0.0936623 -1.05032 0.321142 -0.186173 2.34263 -1.19571 
322 19.0789 21.3067 6.09822 -0.756479 -0.0833776 -0.0906723 -0.752107 -0.085115 -1.59165 
302 16.9338 20.0266 6.06625 0.0898286 0.41428 0.111209 -0.265785 1.36171 -0.899585 
207 7.03136 19.7527 6.1046 0.26259 0.0194594 -0.111468 0.430469 1.30981 0.478688 
309 10.5658 23.5276 6.12557 -0.890407 0.0865531 -0.246086 0.632769 -0.585629 0.828139 
328 12.6812 24.796 6.08449 -0.143669 0.0616052 0.0279056 1.52857 -0.428363 0.850498 
323 17.6533 21.2436 6.07384 0.22782 0.602766 0.0420891 1.01519 0.670001 0.280208 
321 16.9315 22.4617 6.0597 0.416139 -0.427618 -0.0169178 0.23435 0.732163 -0.117442 
65 6.31615 18.5175 6.09515 0.161979 0.348453 0.0222886 -0.760569 0.487081 0.917736 
352 17.6475 23.6741 6.09222 0.0693216 0.504436 0.00121069 -0.836576 0.766493 0.952067 
348 16.9333 24.8884 6.08997 -0.228925 0.220874 -0.0749547 -0.0788387 -0.683294 -1.20273 
341 19.057 23.7426 6.11683 0.28539 -0.955229 -0.0956402 3.82136 1.27292 0.143112 
361 19.769 24.9549 6.1012 0.575195 0.253815 -0.0849418 -0.0244202 1.3539 1.26596 
218 14.8067 30.9482 6.13226 -0.20886 0.326241 -0.0388972 -0.303225 1.33521 -1.42396 
211 12.6799 29.6964 6.14658 0.20748 -0.390924 -0.0728917 -1.44816 2.34004 -0.90984 
252 17.6459 33.4289 6.08255 -0.459946 0.236169 0.136284 -0.566269 -1.14562 -0.947569 
236 15.5107 32.1779 6.1147 -0.247328 0.120249 0.0872371 -1.01651 -1.71934 -1.40194 
213 16.9244 27.3326 6.08826 0.246321 -0.0528707 -0.283106 -1.25243 -1.37384 -0.650116 
223 15.5194 29.7373 6.14562 -0.110004 -0.0362929 -0.128636 -3.65128 1.31079 1.73441 
232 16.9159 32.2108 6.12898 0.977476 -0.185765 -0.144937 -0.0882877 -1.54359 -1.68007 
339 8.4293 27.1562 6.13658 -0.237509 0.331185 -0.0849174 -0.70932 -0.405822 1.97467 
337 6.31186 28.3425 6.08696 0.148371 0.111267 -0.0204683 -2.09145 -0.0652226 0.395249 
345 10.5373 28.444 6.15686 0.563173 -0.844977 0.012682 0.806954 0.124434 -2.2267 
340 9.13757 25.9462 6.14275 0.487745 -0.616707 -0.118731 0.619289 -0.117828 2.01316 
363 11.2709 29.6564 6.15852 -0.227582 -0.180873 0.0185985 0.02786 1.94812 0.906274 
360 9.12429 28.3896 6.16138 0.189121 0.110587 -0.157945 -2.11595 1.2548 -0.151915 
253 19.7865 32.2307 6.06364 -0.161835 1.25618 0.176161 1.53915 -1.0561 -0.585398 
248 19.062 33.4586 6.06979 0.247755 -0.0767686 0.0728664 -0.67208 -1.74451 2.0447 
381 9.15469 33.3001 6.14912 0.10004 -0.588715 -0.12557 2.53557 0.241227 -1.71132 
338 7.01592 27.125 6.07308 0.216104 -0.213003 0.25358 -3.55803 -2.14429 0.248407 
233 19.072 31.0298 6.14267 -0.677114 -0.648366 -0.0590924 -0.964075 -1.07028 0.46098 
237 17.6457 30.9919 6.13938 0.123223 0.348733 -0.0364196 -1.4195 0.810677 -1.35429 
317 6.32059 25.8879 6.10708 -0.049685 0.198831 -0.000179105 -1.91797 -2.86497 2.17237 
786 19.0629 38.3367 6.09064 0.225375 -0.311651 -0.100795 -0.852973 1.55853 -0.818592 
387 7.02246 39.403 6.11289 0.366429 -0.361598 0.103448 -0.763177 0.356784 -3.41962 
880 19.7936 39.544 6.0683 -0.758286 0.809704 0.0663241 -0.520801 2.4154 -0.0965843 
383 6.3227 38.1638 6.09657 0.203961 0.0557782 -0.00793564 3.14579 -0.99918 0.383606 
270 19.769 34.6955 6.0995 0.270359 -0.87051 -0.0208715 -2.15474 -2.07623 -1.78163 
791 19.7759 37.1115 6.10499 0.572039 0.730039 0.0612108 0.0275013 -1.04156 0.968179 
789 15.5242 39.5013 6.05922 -0.269457 0.0533161 0.0715553 -0.139533 -2.4265 -2.033 
264 16.944 37.0868 6.10626 -0.483269 0.472442 -0.0888416 0.325607 1.21991 0.0706943 
785 16.9377 39.5407 6.03882 0.0260834 -0.209606 0.15596 0.789508 2.89799 -1.17696 
879 17.6514 40.7636 6.05268 -0.0755593 -0.0538382 -0.000877186 1.88393 -0.295526 0.0300953 
896 19.7785 42.0147 6.04302 -0.161043 -0.672407 0.180569 -0.0503148 3.75108 -0.134097 
875 19.0691 40.7753 6.08406 0.387816 0.112747 -0.250375 -4.15272 1.16599 0.705421 
790 17.6482 38.3204 6.06339 0.0412451 -0.271457 0.0642388 -2.19617 -1.75012 1.05057 
384 7.03216 36.9342 6.08853 -0.280122 0.257049 0.0142371 1.37646 -0.114616 0.200417 
379 7.03274 34.4825 6.08265 0.14616 0.138455 -0.0598312 -0.813124 -2.36751 -2.73742 
386 9.14555 35.7393 6.09642 -0.00335561 -0.198176 0.161565 0.476892 -0.492628 -1.8116 
385 8.44167 36.9557 6.12261 0.0618892 0.368297 -0.117459 0.287964 2.29833 0.388906 
380 8.45287 34.5068 6.09627 -0.686535 0.533084 0.002288 -1.59245 -2.23915 -0.970291 
249 11.2596 36.9999 6.1115 0.888949 -0.73097 0.0203138 -3.06352 2.15124 -0.341564 
784 14.8044 40.7201 6.0599 0.470847 0.0927934 -0.182016 1.63352 0.112768 -0.795158 
370 4.90868 33.2252 6.09765 0 0 0 0 0 0 
356 4.90868 30.7652 6.09765 0 0 0 0 0 0 
336 4.90868 28.3052 6.09765 0 0 0 0 0 0 
316 4.90868 25.8452 6.09765 0 0 0 0 0 0 
349 11.2593 27.2125 6.13481 0.0495824 0.688539 -0.0398006 -1.07104 -1.11041 -0.786941 
371 6.33194 33.2513 6.08268 -0.796091 0.640184 0.101907 -0.738043 0.394607 -1.41834 
235 13.3898 33.3612 6.15306 0.260811 0.314067 -0.0301839 -0.205852 -2.00799 2.19172 
327 10.5595 25.9852 6.1017 -0.331749 -0.418836 0.214481 0.0712796 0.919983 -0.243495 
358 7.00087 29.579 6.09922 0.679527 -0.0169858 0.132429 -0.0499516 3.14276 -2.38457 
346 12.6802 27.2516 6.12663 -0.494507 -0.0149887 -0.0737532 -0.957276 0.0835769 -2.16048 
347 14.7913 26.0737 6.05888 0.202697 -0.452756 -0.00614653 0.186432 2.83965 1.45062 
364 13.3978 28.4734 6.11685 -0.527601 0.408742 0.0891111 0.323754 1.21477 -1.79425 
373 8.44359 32.0741 6.12322 -0.0187012 -0.501279 0.123671 4.12244 1.44539 -1.30374 
221 11.2699 32.1052 6.18279 -0.356441 -0.426513 -0.122122 1.89715 0.140491 0.307462 
210 10.5594 30.8661 6.16754 -0.12873 0.721027 -0.0691461 0.682096 1.60824 1.13671 
224 17.6465 28.5594 6.06327 -0.353974 -0.168894 0.221264 0.160701 1.06256 1.43754 
216 10.5625 33.321 6.1693 0.101263 0.0374087 -0.00368298 -1.64338 0.340216 1.90283 
219 16.927 29.7753 6.1256 0.400767 -0.325311 -0.0233058 -0.93804 0.742203 0.838375 
220 19.0584 28.5945 6.08678 0.584803 -0.00161442 0.185282 0.615924 -0.571864 -1.24084 
238 19.7866 29.8114 6.16578 -0.460083 0.0262797 -0.269814 1.44662 1.39628 -0.503177 
372 7.02797 32.0446 6.13525 0.271871 -0.921242 -0.0535488 1.58217 0.049473 -0.152805 
357 6.31896 30.8076 6.1479 -0.10081 0.123999 -0.313987 -0.747301 0.226599 -0.216097 
359 8.41541 29.6069 6.11309 0.137711 0.303154 0.171543 -1.11156 1.67572 -1.88313 
350 13.3734 26.0285 6.08454 0.625847 0.0891577 0.0165441 1.10838 -0.819475 -0.579598 
231 14.8019 33.4022 6.14053 -0.0796068 -0.474711 0.0436617 1.235 0.553322 0.373754 
225 19.7881 27.3807 6.10266 -0.270515 0.0878557 -0.149082 0.511259 -0.016372 0.59833 
214 19.0571 26.1681 6.07271 0.223372 -0.102875 0.121069 1.08019 0.351233 -1.55109 
366 17.6472 26.1157 6.075 -0.285162 0.189599 0.0978591 -0.354928 1.47616 -1.22288 
365 15.5096 27.2905 6.04158 0.0591229 0.58597 0.285513 -0.506476 2.70301 0.628755 
374 9.14111 30.8343 6.13314 -0.0461061 0.287841 0.00391498 -1.65502 0.515384 -0.703426 
222 13.3913 30.9185 6.12962 -0.0812035 0.303046 0.0629545 1.40882 -2.41132 2.39941 
212 14.8033 28.5208 6.11597 0.281257 -0.662277 -0.0794713 0.738095 1.83667 1.16095 
217 12.6764 32.1448 6.14847 0.354705 -0.571227 0.0338949 -1.63641 1.35883 0.155651 
234 11.2785 34.5416 6.16142 -0.423705 0.621984 -0.0296437 0.655502 -1.47711 0.517873 
276 8.44407 41.8809 6.13838 0.876306 0.154919 -0.0669462 0.932513 -0.156759 -1.27837 
782 10.5758 43.1241 6.05609 -0.19211 0.195342 -0.0363142 0.95117 1.26111 1.50188 
377 4.90868 35.6852 6.09765 0 0 0 0 0 0 
382 4.90868 38.1452 6.09765 0 0 0 0 0 0 
378 6.32195 35.7075 6.06108 0.122809 -0.11036 0.146343 -2.2844 -0.849664 2.78218 
259 4.90868 40.6052 6.09765 0 0 0 0 0 0 
273 4.90868 43.0652 6.09765 0 0 0 0 0 0 
229 10.5516 35.7669 6.12969 0.753223 -0.0892157 -0.0541034 -1.79577 0.102225 0.976131 
787 11.271 41.9023 6.06273 0.123972 -0.533682 0.103546 0.0900754 1.39704 2.57646 
262 12.6815 39.4778 6.10058 -0.190473 -0.0493424 -0.0310803 0.467664 -0.467762 -3.2182 
267 13.3873 38.2655 6.13252 0.41165 -0.624255 -0.134203 1.05985 -0.144222 -1.81029 
783 12.6879 41.9171 6.02549 -0.156932 -0.0174955 0.0403612 -1.12086 -0.595389 -3.25719 
788 13.3958 40.6937 6.03716 -0.216405 0.306665 0.192949 -2.71191 -2.06844 0.720021 
266 11.2656 39.4378 6.11607 0.232485 0.591147 -0.10898 -0.83876 -1.10997 1.13565 
246 14.8069 35.8496 6.18004 0.222611 -0.401619 -0.266865 0.344878 -1.14708 -1.99638 
247 16.9223 34.6527 6.12671 0.535121 -0.331464 -0.0582731 -0.61214 0.40773 -0.334566 