ITEM: TIMESTEP
9100
ITEM: NUMBER OF ATOMS
4798
ITEM: BOX BOUNDS ff ff ff
-10.3577 110.358
-10.0998 131.9
-100.402 112.598
ITEM: ATOMS id x y z fx fy fz vx vy vz 
72 -0.062301 2.4752 6.09765 0 0 0 0 0 0 
110 4.19854 7.39519 6.09765 0 0 0 0 0 0 
109 2.77826 7.39519 6.09765 0 0 0 0 0 0 
93 4.19854 4.9352 6.09765 0 0 0 0 0 0 
92 2.77826 4.9352 6.09765 0 0 0 0 0 0 
91 2.06812 6.16519 6.09765 0 0 0 0 0 0 
87 0.647839 6.16519 6.09765 0 0 0 0 0 0 
86 -0.062301 7.39519 6.09765 0 0 0 0 0 0 
81 4.19854 2.4752 6.09765 0 0 0 0 0 0 
80 2.77826 2.4752 6.09765 0 0 0 0 0 0 
79 2.06812 3.7052 6.09765 0 0 0 0 0 0 
78 0.647839 3.7052 6.09765 0 0 0 0 0 0 
77 -0.062301 4.9352 6.09765 0 0 0 0 0 0 
76 4.19854 0.015197 6.09765 0 0 0 0 0 0 
75 2.77826 0.015197 6.09765 0 0 0 0 0 0 
74 2.06812 1.2452 6.09765 0 0 0 0 0 0 
73 0.647839 1.2452 6.09765 0 0 0 0 0 0 
6 -0.062301 12.3152 6.09765 0 0 0 0 0 0 
131 4.19854 12.3152 6.09765 0 0 0 0 0 0 
130 2.77826 12.3152 6.09765 0 0 0 0 0 0 
124 4.19854 9.85519 6.09765 0 0 0 0 0 0 
123 2.77826 9.85519 6.09765 0 0 0 0 0 0 
122 2.06812 11.0852 6.09765 0 0 0 0 0 0 
117 0.647839 11.0852 6.09765 0 0 0 0 0 0 
108 2.06812 8.62519 6.09765 0 0 0 0 0 0 
100 0.647839 8.62519 6.09765 0 0 0 0 0 0 
99 -0.062301 9.85519 6.09765 0 0 0 0 0 0 
34 4.19854 14.7752 6.09765 0 0 0 0 0 0 
33 2.77826 14.7752 6.09765 0 0 0 0 0 0 
32 2.06812 16.0052 6.09765 0 0 0 0 0 0 
31 0.647839 16.0052 6.09765 0 0 0 0 0 0 
19 2.06812 13.5452 6.09765 0 0 0 0 0 0 
18 0.647839 13.5452 6.09765 0 0 0 0 0 0 
17 -0.062301 14.7752 6.09765 0 0 0 0 0 0 
300 4.19854 24.6152 6.09765 0 0 0 0 0 0 
299 2.77826 24.6152 6.09765 0 0 0 0 0 0 
204 4.19854 22.1552 6.09765 0 0 0 0 0 0 
203 2.77826 22.1552 6.09765 0 0 0 0 0 0 
202 2.06812 23.3852 6.09765 0 0 0 0 0 0 
191 0.647839 23.3852 6.09765 0 0 0 0 0 0 
190 -0.062301 24.6152 6.09765 0 0 0 0 0 0 
71 2.06812 20.9252 6.09765 0 0 0 0 0 0 
70 0.647839 20.9252 6.09765 0 0 0 0 0 0 
69 -0.062301 22.1552 6.09765 0 0 0 0 0 0 
63 4.19854 19.6952 6.09765 0 0 0 0 0 0 
62 2.77826 19.6952 6.09765 0 0 0 0 0 0 
49 4.19854 17.2352 6.09765 0 0 0 0 0 0 
48 2.77826 17.2352 6.09765 0 0 0 0 0 0 
47 2.06812 18.4652 6.09765 0 0 0 0 0 0 
46 0.647839 18.4652 6.09765 0 0 0 0 0 0 
45 -0.062301 19.6952 6.09765 0 0 0 0 0 0 
30 -0.062301 17.2352 6.09765 0 0 0 0 0 0 
355 4.19854 31.9952 6.09765 0 0 0 0 0 0 
354 2.77826 31.9952 6.09765 0 0 0 0 0 0 
353 2.06812 33.2252 6.09765 0 0 0 0 0 0 
344 0.647839 33.2252 6.09765 0 0 0 0 0 0 
335 4.19854 29.5352 6.09765 0 0 0 0 0 0 
334 2.77826 29.5352 6.09765 0 0 0 0 0 0 
333 2.06812 30.7652 6.09765 0 0 0 0 0 0 
326 0.647839 30.7652 6.09765 0 0 0 0 0 0 
325 -0.062301 31.9952 6.09765 0 0 0 0 0 0 
315 4.19854 27.0752 6.09765 0 0 0 0 0 0 
314 2.77826 27.0752 6.09765 0 0 0 0 0 0 
313 2.06812 28.3052 6.09765 0 0 0 0 0 0 
308 0.647839 28.3052 6.09765 0 0 0 0 0 0 
307 -0.062301 29.5352 6.09765 0 0 0 0 0 0 
298 2.06812 25.8452 6.09765 0 0 0 0 0 0 
297 0.647839 25.8452 6.09765 0 0 0 0 0 0 
296 -0.062301 27.0752 6.09765 0 0 0 0 0 0 
215 -0.062301 36.9152 6.09765 0 0 0 0 0 0 
376 4.19854 36.9152 6.09765 0 0 0 0 0 0 
375 2.77826 36.9152 6.09765 0 0 0 0 0 0 
369 4.19854 34.4552 6.09765 0 0 0 0 0 0 
368 2.77826 34.4552 6.09765 0 0 0 0 0 0 
367 2.06812 35.6852 6.09765 0 0 0 0 0 0 
362 0.647839 35.6852 6.09765 0 0 0 0 0 0 
343 -0.062301 34.4552 6.09765 0 0 0 0 0 0 
258 4.19854 41.8352 6.09765 0 0 0 0 0 0 
257 2.77826 41.8352 6.09765 0 0 0 0 0 0 
256 2.06812 43.0652 6.09765 0 0 0 0 0 0 
255 0.647839 43.0652 6.09765 0 0 0 0 0 0 
243 4.19854 39.3752 6.09765 0 0 0 0 0 0 
242 2.77826 39.3752 6.09765 0 0 0 0 0 0 
241 2.06812 40.6052 6.09765 0 0 0 0 0 0 
240 0.647839 40.6052 6.09765 0 0 0 0 0 0 
239 -0.062301 41.8352 6.09765 0 0 0 0 0 0 
228 2.06812 38.1452 6.09765 0 0 0 0 0 0 
227 0.647839 38.1452 6.09765 0 0 0 0 0 0 
226 -0.062301 39.3752 6.09765 0 0 0 0 0 0 
254 -0.062301 44.2952 6.09765 0 0 0 0 0 0 
905 4.19854 51.6752 6.09765 0 0 0 0 0 0 
904 2.77826 51.6752 6.09765 0 0 0 0 0 0 
890 4.19854 49.2152 6.09765 0 0 0 0 0 0 
889 2.77826 49.2152 6.09765 0 0 0 0 0 0 
888 2.06812 50.4452 6.09765 0 0 0 0 0 0 
887 0.647839 50.4452 6.09765 0 0 0 0 0 0 
886 -0.062301 51.6752 6.09765 0 0 0 0 0 0 
794 4.19854 46.7552 6.09765 0 0 0 0 0 0 
793 2.77826 46.7552 6.09765 0 0 0 0 0 0 
792 2.06812 47.9852 6.09765 0 0 0 0 0 0 
781 0.647839 47.9852 6.09765 0 0 0 0 0 0 
780 -0.062301 49.2152 6.09765 0 0 0 0 0 0 
280 2.06812 45.5252 6.09765 0 0 0 0 0 0 
279 0.647839 45.5252 6.09765 0 0 0 0 0 0 
278 -0.062301 46.7552 6.09765 0 0 0 0 0 0 
272 4.19854 44.2952 6.09765 0 0 0 0 0 0 
271 2.77826 44.2952 6.09765 0 0 0 0 0 0 
959 4.19854 59.0552 6.09765 0 0 0 0 0 0 
958 2.77826 59.0552 6.09765 0 0 0 0 0 0 
957 2.06812 60.2852 6.09765 0 0 0 0 0 0 
952 0.647839 60.2852 6.09765 0 0 0 0 0 0 
945 4.19854 56.5952 6.09765 0 0 0 0 0 0 
944 2.77826 56.5952 6.09765 0 0 0 0 0 0 
943 2.06812 57.8252 6.09765 0 0 0 0 0 0 
934 0.647839 57.8252 6.09765 0 0 0 0 0 0 
933 -0.062301 59.0552 6.09765 0 0 0 0 0 0 
925 4.19854 54.1352 6.09765 0 0 0 0 0 0 
924 2.77826 54.1352 6.09765 0 0 0 0 0 0 
923 2.06812 55.3652 6.09765 0 0 0 0 0 0 
916 0.647839 55.3652 6.09765 0 0 0 0 0 0 
915 -0.062301 56.5952 6.09765 0 0 0 0 0 0 
903 2.06812 52.9052 6.09765 0 0 0 0 0 0 
898 0.647839 52.9052 6.09765 0 0 0 0 0 0 
897 -0.062301 54.1352 6.09765 0 0 0 0 0 0 
805 -0.062301 61.5152 6.09765 0 0 0 0 0 0 
966 4.19854 61.5152 6.09765 0 0 0 0 0 0 
965 2.77826 61.5152 6.09765 0 0 0 0 0 0 
862 4.19854 68.8952 6.09765 0 0 0 0 0 0 
861 2.77826 68.8952 6.09765 0 0 0 0 0 0 
848 4.19854 66.4352 6.09765 0 0 0 0 0 0 
847 2.77826 66.4352 6.09765 0 0 0 0 0 0 
846 2.06812 67.6652 6.09765 0 0 0 0 0 0 
845 0.647839 67.6652 6.09765 0 0 0 0 0 0 
844 -0.062301 68.8952 6.09765 0 0 0 0 0 0 
833 4.19854 63.9752 6.09765 0 0 0 0 0 0 
832 2.77826 63.9752 6.09765 0 0 0 0 0 0 
831 2.06812 65.2052 6.09765 0 0 0 0 0 0 
830 0.647839 65.2052 6.09765 0 0 0 0 0 0 
829 -0.062301 66.4352 6.09765 0 0 0 0 0 0 
818 2.06812 62.7452 6.09765 0 0 0 0 0 0 
817 0.647839 62.7452 6.09765 0 0 0 0 0 0 
816 -0.062301 63.9752 6.09765 0 0 0 0 0 0 
1828 4.19854 76.2752 6.09765 0 0 0 0 0 0 
1827 2.77826 76.2752 6.09765 0 0 0 0 0 0 
1826 2.06812 77.5052 6.09765 0 0 0 0 0 0 
1821 0.647839 77.5052 6.09765 0 0 0 0 0 0 
1813 4.19854 73.8152 6.09765 0 0 0 0 0 0 
1812 2.77826 73.8152 6.09765 0 0 0 0 0 0 
1811 2.06812 75.0452 6.09765 0 0 0 0 0 0 
1810 0.647839 75.0452 6.09765 0 0 0 0 0 0 
1809 -0.062301 76.2752 6.09765 0 0 0 0 0 0 
1717 4.19854 71.3552 6.09765 0 0 0 0 0 0 
1716 2.77826 71.3552 6.09765 0 0 0 0 0 0 
1715 2.06812 72.5852 6.09765 0 0 0 0 0 0 
1704 0.647839 72.5852 6.09765 0 0 0 0 0 0 
1703 -0.062301 73.8152 6.09765 0 0 0 0 0 0 
870 2.06812 70.1252 6.09765 0 0 0 0 0 0 
869 0.647839 70.1252 6.09765 0 0 0 0 0 0 
868 -0.062301 71.3552 6.09765 0 0 0 0 0 0 
1728 -0.062301 86.1152 6.09765 0 0 0 0 0 0 
1889 4.19854 86.1152 6.09765 0 0 0 0 0 0 
1888 2.77826 86.1152 6.09765 0 0 0 0 0 0 
1882 4.19854 83.6552 6.09765 0 0 0 0 0 0 
1881 2.77826 83.6552 6.09765 0 0 0 0 0 0 
1880 2.06812 84.8852 6.09765 0 0 0 0 0 0 
1875 0.647839 84.8852 6.09765 0 0 0 0 0 0 
1868 4.19854 81.1952 6.09765 0 0 0 0 0 0 
1867 2.77826 81.1952 6.09765 0 0 0 0 0 0 
1866 2.06812 82.4252 6.09765 0 0 0 0 0 0 
1857 0.647839 82.4252 6.09765 0 0 0 0 0 0 
1856 -0.062301 83.6552 6.09765 0 0 0 0 0 0 
1848 4.19854 78.7352 6.09765 0 0 0 0 0 0 
1847 2.77826 78.7352 6.09765 0 0 0 0 0 0 
1846 2.06812 79.9652 6.09765 0 0 0 0 0 0 
1839 0.647839 79.9652 6.09765 0 0 0 0 0 0 
1838 -0.062301 81.1952 6.09765 0 0 0 0 0 0 
1820 -0.062301 78.7352 6.09765 0 0 0 0 0 0 
1741 2.06812 87.3452 6.09765 0 0 0 0 0 0 
1740 0.647839 87.3452 6.09765 0 0 0 0 0 0 
2677 4.19854 95.9552 6.09765 0 0 0 0 0 0 
2676 2.77826 95.9552 6.09765 0 0 0 0 0 0 
1793 2.06812 94.7252 6.09765 0 0 0 0 0 0 
1792 0.647839 94.7252 6.09765 0 0 0 0 0 0 
1791 -0.062301 95.9552 6.09765 0 0 0 0 0 0 
1785 4.19854 93.4952 6.09765 0 0 0 0 0 0 
1784 2.77826 93.4952 6.09765 0 0 0 0 0 0 
1771 4.19854 91.0352 6.09765 0 0 0 0 0 0 
1770 2.77826 91.0352 6.09765 0 0 0 0 0 0 
1769 2.06812 92.2652 6.09765 0 0 0 0 0 0 
1768 0.647839 92.2652 6.09765 0 0 0 0 0 0 
1767 -0.062301 93.4952 6.09765 0 0 0 0 0 0 
1756 4.19854 88.5752 6.09765 0 0 0 0 0 0 
1755 2.77826 88.5752 6.09765 0 0 0 0 0 0 
1754 2.06812 89.8052 6.09765 0 0 0 0 0 0 
1753 0.647839 89.8052 6.09765 0 0 0 0 0 0 
1752 -0.062301 91.0352 6.09765 0 0 0 0 0 0 
1739 -0.062301 88.5752 6.09765 0 0 0 0 0 0 
2663 -0.062301 98.4152 6.09765 0 0 0 0 0 0 
2808 4.19854 103.335 6.09765 0 0 0 0 0 0 
2807 2.77826 103.335 6.09765 0 0 0 0 0 0 
2806 2.06812 104.565 6.09765 0 0 0 0 0 0 
2799 0.647839 104.565 6.09765 0 0 0 0 0 0 
2788 4.19854 100.875 6.09765 0 0 0 0 0 0 
2787 2.77826 100.875 6.09765 0 0 0 0 0 0 
2786 2.06812 102.105 6.09765 0 0 0 0 0 0 
2781 0.647839 102.105 6.09765 0 0 0 0 0 0 
2780 -0.062301 103.335 6.09765 0 0 0 0 0 0 
2773 4.19854 98.4152 6.09765 0 0 0 0 0 0 
2772 2.77826 98.4152 6.09765 0 0 0 0 0 0 
2771 2.06812 99.6452 6.09765 0 0 0 0 0 0 
2770 0.647839 99.6452 6.09765 0 0 0 0 0 0 
2769 -0.062301 100.875 6.09765 0 0 0 0 0 0 
2675 2.06812 97.1852 6.09765 0 0 0 0 0 0 
2664 0.647839 97.1852 6.09765 0 0 0 0 0 0 
2849 4.19854 110.715 6.09765 0 0 0 0 0 0 
2848 2.77826 110.715 6.09765 0 0 0 0 0 0 
2842 4.19854 108.255 6.09765 0 0 0 0 0 0 
2841 2.77826 108.255 6.09765 0 0 0 0 0 0 
2840 2.06812 109.485 6.09765 0 0 0 0 0 0 
2835 0.647839 109.485 6.09765 0 0 0 0 0 0 
2828 4.19854 105.795 6.09765 0 0 0 0 0 0 
2827 2.77826 105.795 6.09765 0 0 0 0 0 0 
2826 2.06812 107.025 6.09765 0 0 0 0 0 0 
2817 0.647839 107.025 6.09765 0 0 0 0 0 0 
2816 -0.062301 108.255 6.09765 0 0 0 0 0 0 
2798 -0.062301 105.795 6.09765 0 0 0 0 0 0 
2716 4.19854 113.175 6.09765 0 0 0 0 0 0 
2715 2.77826 113.175 6.09765 0 0 0 0 0 0 
2701 2.06812 111.945 6.09765 0 0 0 0 0 0 
2700 0.647839 111.945 6.09765 0 0 0 0 0 0 
2699 -0.062301 113.175 6.09765 0 0 0 0 0 0 
2688 -0.062301 110.715 6.09765 0 0 0 0 0 0 
2712 -0.062301 115.635 6.09765 0 0 0 0 0 0 
3636 4.19854 120.555 6.09765 0 0 0 0 0 0 
3635 2.77826 120.555 6.09765 0 0 0 0 0 0 
3634 2.06812 121.785 6.09765 0 0 0 0 0 0 
3623 0.647839 121.785 6.09765 0 0 0 0 0 0 
2753 2.06812 119.325 6.09765 0 0 0 0 0 0 
2752 0.647839 119.325 6.09765 0 0 0 0 0 0 
2751 -0.062301 120.555 6.09765 0 0 0 0 0 0 
2745 4.19854 118.095 6.09765 0 0 0 0 0 0 
2744 2.77826 118.095 6.09765 0 0 0 0 0 0 
2731 4.19854 115.635 6.09765 0 0 0 0 0 0 
2730 2.77826 115.635 6.09765 0 0 0 0 0 0 
2729 2.06812 116.865 6.09765 0 0 0 0 0 0 
2728 0.647839 116.865 6.09765 0 0 0 0 0 0 
2727 -0.062301 118.095 6.09765 0 0 0 0 0 0 
2714 2.06812 114.405 6.09765 0 0 0 0 0 0 
2713 0.647839 114.405 6.09765 0 0 0 0 0 0 
85 8.55203 0.325723 5.85884 -0.328008 0.0367095 -0.063266 0.256323 0.938955 1.68893 
24 19.1759 6.78061 6.00004 0.131523 -0.260786 0.0681474 1.67996 -0.41054 0.728792 
9 14.9116 6.61394 6.04265 0.191722 -0.028986 -0.189908 0.0353379 -0.448212 0.969038 
114 8.49256 5.13664 6.16171 -0.501305 -0.0840053 -0.33512 -0.807279 -1.79433 -0.387816 
2 12.8021 5.31342 5.97601 -0.55893 0.627921 0.03517 -0.153529 0.183124 0.731092 
113 7.06208 5.03397 6.13482 -0.192531 0.21135 0.00088768 0.00466799 1.18072 1.595 
13 13.4933 6.54903 6.0226 0.465084 -0.230555 0.0960804 3.94448 0.285611 0.411624 
28 17.7631 6.7089 6.0135 -0.0612463 -0.161751 -0.0799062 3.4697 0.276552 -2.09544 
98 9.29788 1.52156 5.89556 -0.102165 0.316355 0.243372 0.792947 -0.169061 -0.238807 
106 13.6212 1.71767 5.82055 -0.272165 -0.059592 0.255958 0.533584 -0.225577 -1.95561 
102 12.8436 2.89959 5.8956 -0.0219453 -0.0258043 -0.104294 -0.496148 0.816415 0.351354 
105 11.4071 2.83611 5.91167 0.209936 -0.0761525 -0.0421424 -0.0532924 -0.462757 0.710149 
10 17.0689 5.46899 5.96454 0.0236012 0.99023 0.0648071 -3.38514e-05 -2.07482 0.142239 
5 19.2623 1.95482 5.5945 0.454729 -0.450678 -0.0953697 1.2341 -1.98831 1.02689 
119 13.5364 4.12516 5.92137 0.278671 -0.00710274 -0.0259036 -2.32618 -2.263 0.257686 
11 19.2228 4.36289 5.87796 0.642937 -0.279169 -0.218294 -0.824681 2.41821 -1.00695 
14 15.6554 5.41463 5.99149 -0.286912 -0.0853246 -0.213419 0.463047 1.8238 -3.94227 
120 15.711 3.00615 5.87209 -0.165596 -0.586293 -0.116174 0.44256 -0.879343 2.58635 
15 17.8244 4.30013 5.90255 -0.742931 -0.826783 0.129585 -0.129533 -1.38027 0.569142 
3 14.9538 4.18401 5.89214 0.0574093 0.516204 0.295852 2.48614 -0.707454 -0.253461 
121 17.8971 1.89275 5.84139 0.385588 -0.501033 -0.209148 -1.21258 0.225164 2.63423 
107 15.8345 0.599887 5.81007 -0.158045 0.481048 -0.0248913 -1.21792 0.612149 4.58643 
4 17.1304 3.05986 5.8932 0.151761 1.06768 -0.0636339 0.744241 -2.48094 0.916868 
127 7.04038 7.47689 6.13211 -0.24182 0.677583 -0.104223 1.35387 -0.253864 1.97552 
128 8.45185 7.56652 6.13725 1.11183 0.180085 -0.0905001 0.866057 -0.447088 -0.414481 
104 17.1971 0.688481 5.99521 -0.343212 -0.240294 0.0287896 -1.12638 0.044599 0.0229381 
103 15.0164 1.76228 5.81758 0.329017 -0.0287287 0.172377 0.569924 -1.49363 -1.33108 
94 4.90868 3.7052 6.09765 0 0 0 0 0 0 
111 4.90868 6.16519 6.09765 0 0 0 0 0 0 
82 4.90868 1.2452 6.09765 0 0 0 0 0 0 
101 10.6604 4.02658 5.98614 0.120069 0.703266 0.0517194 -0.607539 -1.67098 -1.39713 
118 11.3778 5.27411 6.00824 -0.24095 -1.34426 0.00644029 1.1111 -0.344338 3.00024 
84 7.1785 0.232035 6.00454 0.332651 -0.0830929 -0.0509349 -1.01826 -1.71517 -1.19096 
112 6.31635 6.24142 6.10768 0.893194 0.0654417 0.161407 3.28754 1.51301 0.0117097 
1 10.6296 6.45316 6.08957 -0.154494 0.450704 0.0517318 -0.113699 -1.55859 0.469586 
129 9.20107 6.36564 6.13942 0.141166 0.221448 -0.0116649 -1.97032 1.24423 -0.047896 
95 6.33705 3.7934 6.12149 0.0807896 0.753033 -0.0226072 -0.659853 -1.73323 0.507386 
97 8.52908 2.70968 6.03079 -0.268144 0.046124 -0.0944287 -0.166252 -0.594711 3.06692 
90 11.5152 0.444789 5.77799 -0.325539 0.547361 0.0484376 1.28927 1.01401 -0.699552 
96 7.08094 2.60835 6.10122 -0.0503589 -0.506094 -0.179122 0.794171 0.648389 1.99444 
115 9.23245 3.95047 6.04923 0.353484 -0.516296 0.0947827 3.19213 -0.30895 0.256809 
89 12.8826 0.521007 5.87822 0.156876 -0.133632 -0.0901025 0.0170467 1.58956 -0.744123 
83 6.33458 1.36599 6.07489 0.487946 -0.0109864 -0.00898209 -2.55846 0.163301 0.812323 
88 10.6936 1.60513 5.87647 0.587025 -0.438463 -0.113552 -0.00639704 0.158924 -2.3493 
281 10.5806 21.091 6.10634 0.246632 -0.30528 0.0929287 -0.556694 0.143594 -1.34809 
310 12.7006 22.3716 6.1361 -0.173666 -0.162356 -0.146328 -0.496658 0.273385 1.28608 
68 9.15951 16.1431 6.1442 0.593524 -0.319506 0.0366778 1.13844 -1.5988 1.03878 
35 10.5896 13.7647 6.17715 0.0053797 -0.448199 0.0855564 0.262465 -0.203807 0.425499 
144 9.16687 13.705 6.17952 0.667457 -0.038211 -0.293279 -1.25408 1.95639 0.295682 
143 8.45473 14.9096 6.10432 -0.589597 0.221664 0.2333 3.08553 -2.19245 -0.585505 
142 7.02857 14.8474 6.08267 0.671005 -0.0893829 0.209864 -1.58681 -0.222239 -0.887047 
194 14.8369 16.3319 6.15145 0.730163 0.177333 0.197613 -0.462999 -3.89123 1.31783 
198 13.4305 16.27 6.2017 0.0144783 0.693265 -0.133032 -2.55184 -0.103202 -0.148293 
27 15.6219 7.84282 6.05063 -0.152474 -0.0359509 0.121382 0.17678 -0.730783 -0.946128 
36 12.7402 12.6072 6.22586 -0.721391 0.571982 -0.329244 -0.186574 -0.935144 1.27683 
58 13.4347 13.8417 6.20317 0.799552 -0.0578917 0.0279222 0.486575 1.01437 2.14835 
138 6.32434 13.6108 6.13122 -0.0572324 -0.284696 -0.152119 0.942742 -1.17645 -2.23701 
52 10.5842 16.1933 6.2198 -0.329618 -0.000271297 -0.364885 0.0443124 0.607112 0.589775 
57 11.308 14.985 6.19343 0.0160643 0.165856 0.16665 -0.938473 2.65474 -1.48702 
23 17.0311 7.90801 6.05471 0.167538 -0.135012 0.000100772 -1.21178 -1.08534 -2.08467 
43 17.7463 9.12711 6.08419 -0.440939 0.280791 0.0805207 -0.85606 0.174345 0.14683 
42 15.6045 10.2779 6.14926 -0.254687 -0.450457 -0.0914218 -1.04255 1.63764 0.239303 
285 19.1135 16.4708 6.03267 -0.259267 -0.511277 0.138139 -1.97971 -2.70446 0.347318 
26 13.489 8.97378 6.10368 -0.957199 0.312131 0.103174 -0.0671705 0.372499 -1.27432 
22 14.8944 9.0463 6.10051 0.297203 0.130752 0.0224251 0.97496 -1.16105 -0.121706 
53 12.7266 15.0499 6.21342 -0.800797 -0.15811 -0.047248 -0.392074 -0.571201 0.856922 
306 19.8115 17.684 6.03434 0.16453 0.266615 0.0479147 0.827015 2.01637 2.16224 
192 10.5751 18.6268 6.13092 0.164403 0.251796 0.027911 1.02416 -0.246586 1.62215 
283 14.8112 18.7601 6.19975 1.75436 0.394319 -0.0777142 -0.873255 -0.588292 -0.877907 
282 12.6962 19.9256 6.14916 0.536217 -0.397865 0.0327897 0.252054 -1.39145 -0.80246 
351 15.5404 24.8632 6.12127 0.152317 -0.255424 -0.118773 -0.856591 -3.72796 1.02128 
312 13.4036 21.1474 6.11544 0.0464262 0.443094 0.192386 -1.55682 -0.92614 0.987191 
209 9.15703 18.5768 6.10657 0.309768 0.193815 -0.0215905 0.908334 -1.27879 0.318815 
287 13.43 18.7135 6.19587 -1.61986 0.147695 -0.0691141 2.40119 -2.81888 -0.684044 
342 19.8053 22.5321 6.12221 -0.157561 -0.333802 -0.0507758 -1.64728 -1.22651 1.58618 
67 8.44432 17.3498 6.12401 -0.241815 0.175174 -0.0781793 0.749261 -0.652923 -0.650702 
301 14.8114 21.1953 6.14689 0.316627 0.502069 -0.223562 -2.29003 2.96021 -0.477123 
324 19.8021 20.0983 6.07993 0.455602 0.0975594 0.1117 2.65881 -0.66968 -1.7257 
193 12.715 17.4937 6.18727 -0.105547 -0.801822 0.0767406 1.88225 -0.584651 -0.0551939 
197 11.3017 17.4116 6.17167 -0.183379 0.768915 0.0634337 1.164 -1.04246 1.61865 
304 15.5232 19.9886 6.16978 0.579975 -0.227718 -0.0907311 -2.13057 -1.20001 0.171479 
305 17.6779 18.8384 6.15691 -0.544805 0.418654 -0.205539 -2.80714 -2.05288 -0.0729868 
329 14.8294 23.6359 6.10172 0.00124614 0.000521919 0.0448579 1.48921 -0.162618 1.76956 
303 19.0817 18.8881 6.08294 0.415679 -0.205876 0.0850235 0.0158362 -0.0795003 -0.270057 
288 15.5551 17.5639 6.19057 -0.677642 -0.393522 -0.0450256 0.70852 1.15962 -2.05024 
284 16.9606 17.6231 6.16285 0.769243 -0.440024 -0.158275 -0.454086 0.440361 0.332184 
322 19.1025 21.311 6.11593 -0.889114 0.0231823 -0.00543327 -1.78655 0.0729734 0.113647 
302 16.9474 20.051 6.12373 0.131642 -0.298673 0.305118 0.0856128 -0.941815 -1.26629 
207 7.02384 19.7458 6.02517 0.799587 0.36124 0.161771 -0.30766 1.04809 -0.244932 
331 13.4133 23.6004 6.10844 0.218348 -0.66789 0.0489597 0.496855 -1.95981 1.57418 
295 9.17925 21.0388 6.06896 -0.819024 -0.536118 0.00632077 0.181674 0.715275 0.80211 
309 10.5627 23.5279 6.10468 0.40968 0.262095 0.13052 -1.11874 -0.706791 0.879961 
328 12.694 24.7985 6.11473 -0.0318365 1.01196 -0.0782814 -0.0613188 -1.37952 0.432836 
311 11.2838 22.3201 6.13145 0.149013 -0.0672613 -0.0906339 -0.0218311 -1.45674 1.36051 
126 6.32476 8.71101 6.12609 0.0660245 -1.14009 -0.00930476 -0.0917031 -1.27408 0.821474 
323 17.6788 21.2713 6.1291 -0.00306565 -0.5782 -0.0386774 0.942629 -0.464847 1.24994 
133 6.32151 11.1505 6.12968 0.659244 -0.0250701 -0.0302296 2.46267 1.14781 1.64744 
135 8.47001 10.0257 6.12733 0.147625 -0.613442 0.00331256 -1.13926 0.650648 0.411506 
286 11.2916 19.8696 6.13546 -0.493896 -0.250854 -0.0503082 2.34791 -2.20909 1.62023 
321 16.9514 22.4661 6.11499 0.436188 0.563071 -0.185384 0.681223 -1.75066 0.872922 
51 6.32186 16.0624 6.10767 -0.283069 -0.0887684 -0.216803 1.78711 -2.33597 0.663267 
65 6.31495 18.5154 6.06397 0.370864 -0.275691 -0.0139344 1.68813 1.24698 1.00901 
208 8.45665 19.8029 6.06334 -0.477735 -0.00858759 0.00278618 0.0149063 -0.665277 2.36617 
66 7.02856 17.2897 6.07181 0.118143 0.510002 0.185486 1.29124 0.578209 0.0598701 
139 7.04662 12.3902 6.1415 -0.148442 0.269582 0.0345615 1.1523 -1.27111 -0.633715 
21 12.7448 10.1833 6.14583 0.336819 -0.190134 -0.0807528 -1.60839 0.0554477 0.196462 
40 11.3168 12.5461 6.17748 0.00660096 0.400376 0.0691733 1.20638 1.73494 -0.944405 
352 17.668 23.6911 6.08143 -0.119861 0.15967 0.0812913 0.186157 -0.191402 0.27064 
206 6.32019 20.9713 6.04707 0.0474517 -0.0985702 0.0596426 -0.837937 -1.23928 1.27273 
37 14.8875 11.4833 6.16831 -0.929434 -0.403104 -0.0250102 -0.721648 -4.14443 -0.470682 
348 16.9578 24.9126 6.09715 -0.208401 -0.126317 0.0540446 -1.01017 0.180156 0.501146 
294 8.45567 22.2431 6.06258 -0.362962 0.566326 0.0195361 -0.948375 -2.2301 -2.89252 
341 19.0797 23.7285 6.07697 0.104352 0.436258 0.21118 -2.26109 -1.44191 0.897384 
293 7.0313 22.2025 6.04061 0.380837 0.101456 0.196743 -2.43792 0.375308 -0.598601 
361 19.7938 24.9537 6.10813 -0.53081 0.329429 0.0505411 0.859573 0.443975 1.83469 
54 14.8568 13.9141 6.16957 -0.103541 -0.621946 0.0594503 -2.20863 -1.34269 0.537835 
195 16.9917 15.199 6.07399 -0.295259 -0.242649 0.0516553 -0.12027 0.475389 2.93226 
200 17.7148 13.9938 6.05795 -0.732852 -0.62664 0.151726 1.4371 0.0134802 0.167711 
39 19.1549 9.1986 6.09576 0.194092 -0.647502 -0.190785 0.916269 1.45042 -0.546932 
289 17.7089 16.4179 6.08381 -0.976412 0.314564 0.0653856 -0.0354203 -0.0172101 2.22152 
41 13.4605 11.4138 6.15905 0.538087 -0.497581 0.163613 -0.218053 1.21941 0.228896 
199 15.5725 15.1294 6.13613 0.094886 0.322087 -0.0818713 0.907848 0.751818 0.679803 
140 8.46608 12.4808 6.15011 -0.38106 -0.95859 0.0308967 -0.333129 0.502055 -0.0105911 
20 10.596 11.3249 6.15803 0.338237 -0.180519 -0.0189708 0.462272 0.564469 3.0729 
141 9.18615 11.2619 6.1273 -0.228034 0.0341072 0.139286 0.00488177 -1.03269 1.28783 
38 17.0073 10.3307 6.12576 0.792671 -0.0586233 0.027018 1.02687 0.47211 -0.172802 
8 12.7671 7.74776 6.08924 -0.0244414 0.213282 -0.0354685 -0.709612 1.40293 -0.36323 
60 17.7282 11.5519 6.14874 -0.211776 -0.112947 -0.174317 -1.62381 -1.36809 -1.06809 
7 10.6118 8.88144 6.1237 0.345207 0.0489822 0.0332654 -2.63007 1.30765 -0.748846 
25 11.3253 10.1177 6.14557 -0.0630981 -0.255471 -0.00236472 1.07578 -0.378983 -0.128198 
59 15.5838 12.7044 6.16687 0.468394 0.413922 -0.0833643 -1.24218 1.92021 -0.591272 
12 11.3511 7.67837 6.09891 -0.361067 0.215143 0.0170842 1.74844 1.18437 -0.323297 
136 9.19752 8.80051 6.11419 -0.677842 0.244908 0.144495 1.31161 1.55262 -0.525504 
55 17.0049 12.7577 6.11544 -0.215908 0.470521 0.10495 0.646374 0.642392 -0.972748 
137 4.90868 13.5452 6.09765 0 0 0 0 0 0 
132 4.90868 11.0852 6.09765 0 0 0 0 0 0 
125 4.90868 8.62519 6.09765 0 0 0 0 0 0 
50 4.90868 16.0052 6.09765 0 0 0 0 0 0 
319 8.45063 24.7041 6.10774 -0.264529 0.0909545 -0.115104 0.785552 1.14436 -0.264205 
318 7.03577 24.6761 6.08973 -0.118354 -0.557349 0.0698374 0.73219 0.879023 2.06975 
332 15.547 22.4174 6.08391 -0.746778 -0.0638372 0.245913 0.883659 0.0351286 -2.95782 
134 7.0534 9.92957 6.13644 -0.273252 0.828543 -0.0970797 -1.53087 1.87736 -0.606997 
205 4.90868 20.9252 6.09765 0 0 0 0 0 0 
291 4.90868 23.3852 6.09765 0 0 0 0 0 0 
64 4.90868 18.4652 6.09765 0 0 0 0 0 0 
320 9.15765 23.4856 6.08326 -0.331415 -0.248592 0.068282 3.04391 -1.11771 -0.755228 
292 6.32881 23.4295 6.09835 -0.13569 0.163303 -0.195959 0.723086 -0.126407 -2.88594 
56 19.1368 11.6017 6.10141 0.364215 0.248785 0.0124908 0.781234 1.76164 0.114789 
196 19.1128 14.0329 6.04726 0.795564 -0.0318971 0.0298788 0.50641 0.264577 -0.213978 
290 19.8217 15.2561 6.04445 0.409215 -0.0355422 -0.159865 -0.671943 1.77583 -0.234759 
330 11.2771 24.757 6.127 -0.219185 0.576618 -0.184673 0.689233 -0.624192 -1.73994 
786 19.0602 38.3404 6.10541 -0.177058 -0.143713 -0.101295 2.34483 -0.444329 -0.854795 
269 17.6453 35.8696 6.1145 -0.203164 0.509555 -0.0787423 -1.14802 3.21205 0.825658 
880 19.7743 39.5516 6.07755 -0.204232 0.771792 0.0334935 -0.659091 -0.518458 -1.44878 
218 14.8139 30.952 6.06947 0.52332 0.0400084 0.0201956 1.5247 -0.21754 -0.420721 
359 8.42797 29.6142 6.10977 0.237784 -0.581399 0.0190532 1.13275 -0.174468 -0.26283 
263 14.7988 38.2779 6.05638 -0.303802 0.303099 0.111118 0.03634 -0.95549 2.80475 
222 13.4029 30.9164 6.09542 0.12344 0.590322 -0.015174 1.57217 1.28043 0.48531 
211 12.6968 29.7032 6.07955 -0.428561 -0.503949 0.0314097 1.14526 1.0866 0.30669 
265 19.0597 35.9041 6.09738 -0.0268948 -0.0195578 0.0646473 -0.970826 0.822768 -0.653547 
252 17.6462 33.442 6.11486 0.155003 0.00608433 -0.238751 -0.0414756 -1.26386 0.527009 
236 15.5234 32.1865 6.06324 -0.208477 -0.514554 0.14155 0.662684 1.73363 -0.232051 
264 16.928 37.0947 6.10787 -0.227165 -0.532746 -0.0408032 0.497449 0.366499 1.47574 
250 13.3845 35.8175 6.0806 0.147163 -0.322757 -0.141733 1.42901 -1.02438 2.62815 
213 16.9488 27.3496 6.10796 -0.203582 -0.186247 0.0150101 -2.36418 -2.44438 0.550246 
879 17.6529 40.7649 6.11225 -0.51887 -0.181226 -0.157921 0.465252 -0.671006 -1.11221 
212 14.8259 28.5153 6.04809 0.129966 -0.0952874 0.267153 -1.56754 0.836272 0.502357 
223 15.547 29.7374 6.08067 -0.8029 0.143646 -0.100807 0.755509 0.630206 0.81797 
277 9.14389 40.669 6.11047 0.00950464 -0.654568 -0.119289 -0.997575 1.16831 -0.651152 
217 12.6917 32.1382 6.11768 -0.0296069 -0.135532 -0.174227 1.42693 -0.490685 -0.547036 
790 17.649 38.3052 6.08915 -0.298662 0.772356 0.0483578 1.59942 1.68357 1.54411 
384 7.02838 36.9478 6.09804 -0.103939 0.297221 -0.0376362 -0.252779 0.206191 0.927951 
232 16.9347 32.2174 6.09672 0.0160211 -0.0501509 0.0169683 -0.347422 1.87672 -0.163513 
875 19.0588 40.7805 6.08144 0.635109 -0.100263 0.171138 0.808669 -1.73226 -0.605393 
896 19.7765 42.0053 6.1414 0.402095 -0.240237 -0.147676 0.387613 -0.687954 0.372772 
785 16.936 39.5382 6.07758 -0.07532 -0.272507 0.0143062 -3.12485 -0.27611 0.705471 
789 15.5117 39.5086 6.05324 0.141106 -0.00624213 0.00948624 1.46959 -1.50891 -0.871697 
260 6.32565 40.6429 6.08168 -0.370333 -0.704613 0.125337 0.00755515 0.89092 0.783372 
791 19.7678 37.1281 6.12093 0.638047 -0.228917 -0.17221 1.04177 0.794288 -2.256 
874 16.9361 41.983 6.11545 0.49386 0.0197095 -0.0850675 -0.502666 0.728108 0.813302 
270 19.7751 34.6895 6.07014 0.0723308 -0.0515918 0.0533044 0.873652 -1.23068 0.461693 
374 9.14204 30.8282 6.09954 0.285008 0.731109 0.0170425 2.88989 -0.651861 0.0926903 
365 15.535 27.294 6.11242 -0.00606579 0.327394 -0.166338 1.60309 -2.85758 0.0592694 
274 6.3185 43.0853 6.08165 0.196341 0.603184 -0.0118235 1.00283 -2.27933 -3.15921 
366 17.6622 26.144 6.11897 -0.13242 -0.585428 0.0517887 -1.12172 -1.36618 -0.13123 
214 19.0669 26.1746 6.15134 0.670918 -0.399768 -0.291467 -2.14091 -0.436676 0.637501 
225 19.7869 27.3906 6.11174 0.050425 0.0981735 -0.0620236 -0.47081 -0.0574361 0.875886 
231 14.8035 33.393 6.073 0.0214094 0.115281 0.0545672 0.24661 1.14791 -0.181924 
878 15.5333 41.9523 6.07137 -0.574775 -0.0470951 0.0367187 1.13388 -0.341041 0.710172 
350 13.4067 26.0422 6.08227 -0.309049 -0.550557 0.142892 1.01517 0.581431 0.22549 
799 9.14257 43.1001 6.01799 0.130251 0.56058 -0.0272585 1.69753 -0.145836 -0.752472 
388 8.43814 39.4277 6.09496 0.469105 0.253304 0.0320323 -0.00617195 2.61193 0.979184 
383 6.32584 38.1814 6.10657 -0.237688 -0.360439 -0.0534408 0.276816 -1.98053 1.10545 
275 7.01719 41.8671 6.09696 0.453658 -0.0255119 -0.114722 0.162161 -2.28858 -1.46229 
387 7.02857 39.4129 6.10977 -0.212715 0.0608276 -0.0801418 -0.972641 -0.748321 1.59748 
370 4.90868 33.2252 6.09765 0 0 0 0 0 0 
356 4.90868 30.7652 6.09765 0 0 0 0 0 0 
336 4.90868 28.3052 6.09765 0 0 0 0 0 0 
316 4.90868 25.8452 6.09765 0 0 0 0 0 0 
349 11.276 27.2136 6.06607 -0.310337 0.388261 0.123998 -2.22632 1.02367 -0.310183 
371 6.31547 33.2677 6.1053 0.360331 -1.02947 -0.0780887 1.22775 0.508565 1.53596 
339 8.44379 27.1615 6.1291 -0.250064 -0.064709 -0.107354 0.179526 -2.48471 -0.523622 
337 6.32139 28.3463 6.10267 -0.118538 -0.370026 0.0496857 -0.432714 0.161937 1.58698 
340 9.14364 25.9392 6.11321 0.479719 0.204566 -0.0336901 1.76763 -2.04582 2.51227 
358 7.01909 29.5707 6.11577 0.171938 0.16027 -0.170446 -0.477983 -0.01109 -1.81532 
276 8.43032 41.8791 6.08085 0.00181442 0.357662 -0.0793172 -0.969942 -1.26548 -0.642437 
379 7.03458 34.4841 6.11184 -0.0379766 0.079234 -0.0457643 -2.01671 0.967275 0.19307 
386 9.14384 35.7499 6.02803 -0.0794118 -0.0325874 0.222972 0.0582453 -1.50349 0.756799 
385 8.43912 36.9835 6.05736 0.0978374 -0.720666 0.046124 1.67469 -0.436278 -2.09544 
377 4.90868 35.6852 6.09765 0 0 0 0 0 0 
382 4.90868 38.1452 6.09765 0 0 0 0 0 0 
378 6.33279 35.7095 6.1009 -0.424763 0.234744 0.00100607 -0.0416974 -0.0425917 -2.40513 
380 8.44646 34.5007 6.09173 0.275804 0.49974 -0.243833 -0.260553 1.23521 1.59659 
259 4.90868 40.6052 6.09765 0 0 0 0 0 0 
273 4.90868 43.0652 6.09765 0 0 0 0 0 0 
363 11.2751 29.6618 6.10341 0.171383 -0.197337 -0.0487827 0.379696 1.1555 -1.21349 
229 10.5601 35.7837 6.01697 -0.392365 -0.43117 -0.0630527 3.39402 -0.0399463 -0.47604 
249 11.2649 36.9988 6.03904 0.236725 0.817008 0.0820015 -2.4018 0.23886 -1.03701 
787 11.2605 41.9306 6.09203 0.673105 -0.441272 -0.320088 2.8213 -0.050281 -2.99378 
262 12.6695 39.4863 6.1182 0.48748 0.443771 -0.132558 -1.30538 -0.145309 -0.554486 
267 13.3755 38.2656 6.09435 0.523286 0.00837815 -0.0802107 0.768704 -0.371449 -0.614018 
783 12.6862 41.9389 6.06732 -0.293293 -0.166923 0.0851801 -2.47583 -1.19028 2.80337 
210 10.5638 30.88 6.09534 -0.315989 0.0304846 0.0991107 0.0983683 -0.499681 0.435961 
360 9.14259 28.3911 6.10756 -0.0183118 0.231798 0.103893 1.80048 -0.65108 -0.889727 
788 13.3951 40.7182 6.08909 -0.616956 -0.491837 -0.0113118 -0.157109 -1.49159 0.296465 
216 10.5707 33.3319 6.02831 -0.130832 -0.645928 0.151222 3.68443 0.724579 0.759715 
338 7.03212 27.127 6.10874 -0.124291 -0.0597441 0.0542386 -1.82917 -1.61507 0.333954 
220 19.0753 28.606 6.11348 -0.264246 -0.451164 -0.0177473 0.173925 0.435316 0.386595 
266 11.2593 39.469 6.1108 -0.098095 -0.294376 -0.109842 -1.34426 -0.266182 -1.34884 
246 14.8038 35.8215 6.08669 -0.336757 0.533084 -0.00713048 0.354984 2.21307 2.33097 
247 16.9232 34.6585 6.09407 0.41347 -0.477461 0.124804 -0.911321 1.3427 -1.44204 
233 19.0541 31.0363 6.10648 0.391495 -0.264024 -0.0276641 -1.42644 -1.01202 0.524756 
245 12.6808 37.0398 6.06697 -0.298061 -0.359676 0.0257131 1.94013 0.0519872 -1.4207 
261 10.5612 40.6961 6.09071 -0.232938 -0.0247896 0.139279 -0.220912 -0.84726 4.19412 
268 15.504 37.0558 6.08536 0.433124 0.0146445 -0.0332747 -0.495978 -0.0219209 0.194798 
238 19.7782 29.8211 6.10913 -0.265951 0.400403 -0.0652589 1.54252 0.580909 0.00459047 
244 10.5581 38.2277 6.07491 0.3305 0.179977 0.0141588 -1.82065 -1.51768 1.27528 
389 9.14952 38.2014 6.07386 -0.300828 0.421773 0.00691267 -0.473829 0.776291 -0.434804 