ITEM: TIMESTEP
9800
ITEM: NUMBER OF ATOMS
4798
ITEM: BOX BOUNDS ff ff ff
-10.3577 110.358
-10.0998 131.9
-100.402 112.598
ITEM: ATOMS id x y z fx fy fz vx vy vz 
72 -0.062301 2.4752 6.09765 0 0 0 0 0 0 
110 4.19854 7.39519 6.09765 0 0 0 0 0 0 
109 2.77826 7.39519 6.09765 0 0 0 0 0 0 
93 4.19854 4.9352 6.09765 0 0 0 0 0 0 
92 2.77826 4.9352 6.09765 0 0 0 0 0 0 
91 2.06812 6.16519 6.09765 0 0 0 0 0 0 
87 0.647839 6.16519 6.09765 0 0 0 0 0 0 
86 -0.062301 7.39519 6.09765 0 0 0 0 0 0 
81 4.19854 2.4752 6.09765 0 0 0 0 0 0 
80 2.77826 2.4752 6.09765 0 0 0 0 0 0 
79 2.06812 3.7052 6.09765 0 0 0 0 0 0 
78 0.647839 3.7052 6.09765 0 0 0 0 0 0 
77 -0.062301 4.9352 6.09765 0 0 0 0 0 0 
76 4.19854 0.015197 6.09765 0 0 0 0 0 0 
75 2.77826 0.015197 6.09765 0 0 0 0 0 0 
74 2.06812 1.2452 6.09765 0 0 0 0 0 0 
73 0.647839 1.2452 6.09765 0 0 0 0 0 0 
6 -0.062301 12.3152 6.09765 0 0 0 0 0 0 
131 4.19854 12.3152 6.09765 0 0 0 0 0 0 
130 2.77826 12.3152 6.09765 0 0 0 0 0 0 
124 4.19854 9.85519 6.09765 0 0 0 0 0 0 
123 2.77826 9.85519 6.09765 0 0 0 0 0 0 
122 2.06812 11.0852 6.09765 0 0 0 0 0 0 
117 0.647839 11.0852 6.09765 0 0 0 0 0 0 
108 2.06812 8.62519 6.09765 0 0 0 0 0 0 
100 0.647839 8.62519 6.09765 0 0 0 0 0 0 
99 -0.062301 9.85519 6.09765 0 0 0 0 0 0 
34 4.19854 14.7752 6.09765 0 0 0 0 0 0 
33 2.77826 14.7752 6.09765 0 0 0 0 0 0 
32 2.06812 16.0052 6.09765 0 0 0 0 0 0 
31 0.647839 16.0052 6.09765 0 0 0 0 0 0 
19 2.06812 13.5452 6.09765 0 0 0 0 0 0 
18 0.647839 13.5452 6.09765 0 0 0 0 0 0 
17 -0.062301 14.7752 6.09765 0 0 0 0 0 0 
300 4.19854 24.6152 6.09765 0 0 0 0 0 0 
299 2.77826 24.6152 6.09765 0 0 0 0 0 0 
204 4.19854 22.1552 6.09765 0 0 0 0 0 0 
203 2.77826 22.1552 6.09765 0 0 0 0 0 0 
202 2.06812 23.3852 6.09765 0 0 0 0 0 0 
191 0.647839 23.3852 6.09765 0 0 0 0 0 0 
190 -0.062301 24.6152 6.09765 0 0 0 0 0 0 
71 2.06812 20.9252 6.09765 0 0 0 0 0 0 
70 0.647839 20.9252 6.09765 0 0 0 0 0 0 
69 -0.062301 22.1552 6.09765 0 0 0 0 0 0 
63 4.19854 19.6952 6.09765 0 0 0 0 0 0 
62 2.77826 19.6952 6.09765 0 0 0 0 0 0 
49 4.19854 17.2352 6.09765 0 0 0 0 0 0 
48 2.77826 17.2352 6.09765 0 0 0 0 0 0 
47 2.06812 18.4652 6.09765 0 0 0 0 0 0 
46 0.647839 18.4652 6.09765 0 0 0 0 0 0 
45 -0.062301 19.6952 6.09765 0 0 0 0 0 0 
30 -0.062301 17.2352 6.09765 0 0 0 0 0 0 
355 4.19854 31.9952 6.09765 0 0 0 0 0 0 
354 2.77826 31.9952 6.09765 0 0 0 0 0 0 
353 2.06812 33.2252 6.09765 0 0 0 0 0 0 
344 0.647839 33.2252 6.09765 0 0 0 0 0 0 
335 4.19854 29.5352 6.09765 0 0 0 0 0 0 
334 2.77826 29.5352 6.09765 0 0 0 0 0 0 
333 2.06812 30.7652 6.09765 0 0 0 0 0 0 
326 0.647839 30.7652 6.09765 0 0 0 0 0 0 
325 -0.062301 31.9952 6.09765 0 0 0 0 0 0 
315 4.19854 27.0752 6.09765 0 0 0 0 0 0 
314 2.77826 27.0752 6.09765 0 0 0 0 0 0 
313 2.06812 28.3052 6.09765 0 0 0 0 0 0 
308 0.647839 28.3052 6.09765 0 0 0 0 0 0 
307 -0.062301 29.5352 6.09765 0 0 0 0 0 0 
298 2.06812 25.8452 6.09765 0 0 0 0 0 0 
297 0.647839 25.8452 6.09765 0 0 0 0 0 0 
296 -0.062301 27.0752 6.09765 0 0 0 0 0 0 
215 -0.062301 36.9152 6.09765 0 0 0 0 0 0 
376 4.19854 36.9152 6.09765 0 0 0 0 0 0 
375 2.77826 36.9152 6.09765 0 0 0 0 0 0 
369 4.19854 34.4552 6.09765 0 0 0 0 0 0 
368 2.77826 34.4552 6.09765 0 0 0 0 0 0 
367 2.06812 35.6852 6.09765 0 0 0 0 0 0 
362 0.647839 35.6852 6.09765 0 0 0 0 0 0 
343 -0.062301 34.4552 6.09765 0 0 0 0 0 0 
258 4.19854 41.8352 6.09765 0 0 0 0 0 0 
257 2.77826 41.8352 6.09765 0 0 0 0 0 0 
256 2.06812 43.0652 6.09765 0 0 0 0 0 0 
255 0.647839 43.0652 6.09765 0 0 0 0 0 0 
243 4.19854 39.3752 6.09765 0 0 0 0 0 0 
242 2.77826 39.3752 6.09765 0 0 0 0 0 0 
241 2.06812 40.6052 6.09765 0 0 0 0 0 0 
240 0.647839 40.6052 6.09765 0 0 0 0 0 0 
239 -0.062301 41.8352 6.09765 0 0 0 0 0 0 
228 2.06812 38.1452 6.09765 0 0 0 0 0 0 
227 0.647839 38.1452 6.09765 0 0 0 0 0 0 
226 -0.062301 39.3752 6.09765 0 0 0 0 0 0 
254 -0.062301 44.2952 6.09765 0 0 0 0 0 0 
905 4.19854 51.6752 6.09765 0 0 0 0 0 0 
904 2.77826 51.6752 6.09765 0 0 0 0 0 0 
890 4.19854 49.2152 6.09765 0 0 0 0 0 0 
889 2.77826 49.2152 6.09765 0 0 0 0 0 0 
888 2.06812 50.4452 6.09765 0 0 0 0 0 0 
887 0.647839 50.4452 6.09765 0 0 0 0 0 0 
886 -0.062301 51.6752 6.09765 0 0 0 0 0 0 
794 4.19854 46.7552 6.09765 0 0 0 0 0 0 
793 2.77826 46.7552 6.09765 0 0 0 0 0 0 
792 2.06812 47.9852 6.09765 0 0 0 0 0 0 
781 0.647839 47.9852 6.09765 0 0 0 0 0 0 
780 -0.062301 49.2152 6.09765 0 0 0 0 0 0 
280 2.06812 45.5252 6.09765 0 0 0 0 0 0 
279 0.647839 45.5252 6.09765 0 0 0 0 0 0 
278 -0.062301 46.7552 6.09765 0 0 0 0 0 0 
272 4.19854 44.2952 6.09765 0 0 0 0 0 0 
271 2.77826 44.2952 6.09765 0 0 0 0 0 0 
959 4.19854 59.0552 6.09765 0 0 0 0 0 0 
958 2.77826 59.0552 6.09765 0 0 0 0 0 0 
957 2.06812 60.2852 6.09765 0 0 0 0 0 0 
952 0.647839 60.2852 6.09765 0 0 0 0 0 0 
945 4.19854 56.5952 6.09765 0 0 0 0 0 0 
944 2.77826 56.5952 6.09765 0 0 0 0 0 0 
943 2.06812 57.8252 6.09765 0 0 0 0 0 0 
934 0.647839 57.8252 6.09765 0 0 0 0 0 0 
933 -0.062301 59.0552 6.09765 0 0 0 0 0 0 
925 4.19854 54.1352 6.09765 0 0 0 0 0 0 
924 2.77826 54.1352 6.09765 0 0 0 0 0 0 
923 2.06812 55.3652 6.09765 0 0 0 0 0 0 
916 0.647839 55.3652 6.09765 0 0 0 0 0 0 
915 -0.062301 56.5952 6.09765 0 0 0 0 0 0 
903 2.06812 52.9052 6.09765 0 0 0 0 0 0 
898 0.647839 52.9052 6.09765 0 0 0 0 0 0 
897 -0.062301 54.1352 6.09765 0 0 0 0 0 0 
805 -0.062301 61.5152 6.09765 0 0 0 0 0 0 
966 4.19854 61.5152 6.09765 0 0 0 0 0 0 
965 2.77826 61.5152 6.09765 0 0 0 0 0 0 
862 4.19854 68.8952 6.09765 0 0 0 0 0 0 
861 2.77826 68.8952 6.09765 0 0 0 0 0 0 
848 4.19854 66.4352 6.09765 0 0 0 0 0 0 
847 2.77826 66.4352 6.09765 0 0 0 0 0 0 
846 2.06812 67.6652 6.09765 0 0 0 0 0 0 
845 0.647839 67.6652 6.09765 0 0 0 0 0 0 
844 -0.062301 68.8952 6.09765 0 0 0 0 0 0 
833 4.19854 63.9752 6.09765 0 0 0 0 0 0 
832 2.77826 63.9752 6.09765 0 0 0 0 0 0 
831 2.06812 65.2052 6.09765 0 0 0 0 0 0 
830 0.647839 65.2052 6.09765 0 0 0 0 0 0 
829 -0.062301 66.4352 6.09765 0 0 0 0 0 0 
818 2.06812 62.7452 6.09765 0 0 0 0 0 0 
817 0.647839 62.7452 6.09765 0 0 0 0 0 0 
816 -0.062301 63.9752 6.09765 0 0 0 0 0 0 
1828 4.19854 76.2752 6.09765 0 0 0 0 0 0 
1827 2.77826 76.2752 6.09765 0 0 0 0 0 0 
1826 2.06812 77.5052 6.09765 0 0 0 0 0 0 
1821 0.647839 77.5052 6.09765 0 0 0 0 0 0 
1813 4.19854 73.8152 6.09765 0 0 0 0 0 0 
1812 2.77826 73.8152 6.09765 0 0 0 0 0 0 
1811 2.06812 75.0452 6.09765 0 0 0 0 0 0 
1810 0.647839 75.0452 6.09765 0 0 0 0 0 0 
1809 -0.062301 76.2752 6.09765 0 0 0 0 0 0 
1717 4.19854 71.3552 6.09765 0 0 0 0 0 0 
1716 2.77826 71.3552 6.09765 0 0 0 0 0 0 
1715 2.06812 72.5852 6.09765 0 0 0 0 0 0 
1704 0.647839 72.5852 6.09765 0 0 0 0 0 0 
1703 -0.062301 73.8152 6.09765 0 0 0 0 0 0 
870 2.06812 70.1252 6.09765 0 0 0 0 0 0 
869 0.647839 70.1252 6.09765 0 0 0 0 0 0 
868 -0.062301 71.3552 6.09765 0 0 0 0 0 0 
1728 -0.062301 86.1152 6.09765 0 0 0 0 0 0 
1889 4.19854 86.1152 6.09765 0 0 0 0 0 0 
1888 2.77826 86.1152 6.09765 0 0 0 0 0 0 
1882 4.19854 83.6552 6.09765 0 0 0 0 0 0 
1881 2.77826 83.6552 6.09765 0 0 0 0 0 0 
1880 2.06812 84.8852 6.09765 0 0 0 0 0 0 
1875 0.647839 84.8852 6.09765 0 0 0 0 0 0 
1868 4.19854 81.1952 6.09765 0 0 0 0 0 0 
1867 2.77826 81.1952 6.09765 0 0 0 0 0 0 
1866 2.06812 82.4252 6.09765 0 0 0 0 0 0 
1857 0.647839 82.4252 6.09765 0 0 0 0 0 0 
1856 -0.062301 83.6552 6.09765 0 0 0 0 0 0 
1848 4.19854 78.7352 6.09765 0 0 0 0 0 0 
1847 2.77826 78.7352 6.09765 0 0 0 0 0 0 
1846 2.06812 79.9652 6.09765 0 0 0 0 0 0 
1839 0.647839 79.9652 6.09765 0 0 0 0 0 0 
1838 -0.062301 81.1952 6.09765 0 0 0 0 0 0 
1820 -0.062301 78.7352 6.09765 0 0 0 0 0 0 
1741 2.06812 87.3452 6.09765 0 0 0 0 0 0 
1740 0.647839 87.3452 6.09765 0 0 0 0 0 0 
2677 4.19854 95.9552 6.09765 0 0 0 0 0 0 
2676 2.77826 95.9552 6.09765 0 0 0 0 0 0 
1793 2.06812 94.7252 6.09765 0 0 0 0 0 0 
1792 0.647839 94.7252 6.09765 0 0 0 0 0 0 
1791 -0.062301 95.9552 6.09765 0 0 0 0 0 0 
1785 4.19854 93.4952 6.09765 0 0 0 0 0 0 
1784 2.77826 93.4952 6.09765 0 0 0 0 0 0 
1771 4.19854 91.0352 6.09765 0 0 0 0 0 0 
1770 2.77826 91.0352 6.09765 0 0 0 0 0 0 
1769 2.06812 92.2652 6.09765 0 0 0 0 0 0 
1768 0.647839 92.2652 6.09765 0 0 0 0 0 0 
1767 -0.062301 93.4952 6.09765 0 0 0 0 0 0 
1756 4.19854 88.5752 6.09765 0 0 0 0 0 0 
1755 2.77826 88.5752 6.09765 0 0 0 0 0 0 
1754 2.06812 89.8052 6.09765 0 0 0 0 0 0 
1753 0.647839 89.8052 6.09765 0 0 0 0 0 0 
1752 -0.062301 91.0352 6.09765 0 0 0 0 0 0 
1739 -0.062301 88.5752 6.09765 0 0 0 0 0 0 
2663 -0.062301 98.4152 6.09765 0 0 0 0 0 0 
2808 4.19854 103.335 6.09765 0 0 0 0 0 0 
2807 2.77826 103.335 6.09765 0 0 0 0 0 0 
2806 2.06812 104.565 6.09765 0 0 0 0 0 0 
2799 0.647839 104.565 6.09765 0 0 0 0 0 0 
2788 4.19854 100.875 6.09765 0 0 0 0 0 0 
2787 2.77826 100.875 6.09765 0 0 0 0 0 0 
2786 2.06812 102.105 6.09765 0 0 0 0 0 0 
2781 0.647839 102.105 6.09765 0 0 0 0 0 0 
2780 -0.062301 103.335 6.09765 0 0 0 0 0 0 
2773 4.19854 98.4152 6.09765 0 0 0 0 0 0 
2772 2.77826 98.4152 6.09765 0 0 0 0 0 0 
2771 2.06812 99.6452 6.09765 0 0 0 0 0 0 
2770 0.647839 99.6452 6.09765 0 0 0 0 0 0 
2769 -0.062301 100.875 6.09765 0 0 0 0 0 0 
2675 2.06812 97.1852 6.09765 0 0 0 0 0 0 
2664 0.647839 97.1852 6.09765 0 0 0 0 0 0 
2849 4.19854 110.715 6.09765 0 0 0 0 0 0 
2848 2.77826 110.715 6.09765 0 0 0 0 0 0 
2842 4.19854 108.255 6.09765 0 0 0 0 0 0 
2841 2.77826 108.255 6.09765 0 0 0 0 0 0 
2840 2.06812 109.485 6.09765 0 0 0 0 0 0 
2835 0.647839 109.485 6.09765 0 0 0 0 0 0 
2828 4.19854 105.795 6.09765 0 0 0 0 0 0 
2827 2.77826 105.795 6.09765 0 0 0 0 0 0 
2826 2.06812 107.025 6.09765 0 0 0 0 0 0 
2817 0.647839 107.025 6.09765 0 0 0 0 0 0 
2816 -0.062301 108.255 6.09765 0 0 0 0 0 0 
2798 -0.062301 105.795 6.09765 0 0 0 0 0 0 
2716 4.19854 113.175 6.09765 0 0 0 0 0 0 
2715 2.77826 113.175 6.09765 0 0 0 0 0 0 
2701 2.06812 111.945 6.09765 0 0 0 0 0 0 
2700 0.647839 111.945 6.09765 0 0 0 0 0 0 
2699 -0.062301 113.175 6.09765 0 0 0 0 0 0 
2688 -0.062301 110.715 6.09765 0 0 0 0 0 0 
2712 -0.062301 115.635 6.09765 0 0 0 0 0 0 
3636 4.19854 120.555 6.09765 0 0 0 0 0 0 
3635 2.77826 120.555 6.09765 0 0 0 0 0 0 
3634 2.06812 121.785 6.09765 0 0 0 0 0 0 
3623 0.647839 121.785 6.09765 0 0 0 0 0 0 
2753 2.06812 119.325 6.09765 0 0 0 0 0 0 
2752 0.647839 119.325 6.09765 0 0 0 0 0 0 
2751 -0.062301 120.555 6.09765 0 0 0 0 0 0 
2745 4.19854 118.095 6.09765 0 0 0 0 0 0 
2744 2.77826 118.095 6.09765 0 0 0 0 0 0 
2731 4.19854 115.635 6.09765 0 0 0 0 0 0 
2730 2.77826 115.635 6.09765 0 0 0 0 0 0 
2729 2.06812 116.865 6.09765 0 0 0 0 0 0 
2728 0.647839 116.865 6.09765 0 0 0 0 0 0 
2727 -0.062301 118.095 6.09765 0 0 0 0 0 0 
2714 2.06812 114.405 6.09765 0 0 0 0 0 0 
2713 0.647839 114.405 6.09765 0 0 0 0 0 0 
85 8.55139 0.315785 6.15423 0.934957 0.164225 0.113062 -1.70417 0.0137684 4.09003 
24 19.1644 6.75569 6.05422 0.984791 -0.14441 0.14751 2.34823 -2.57927 2.10927 
9 14.8958 6.61717 6.08359 0.360886 0.217918 0.153068 0.0493809 -0.866771 1.27196 
114 8.49725 5.12542 6.09285 -0.366255 0.323492 -0.132993 0.594134 -0.198534 -0.891351 
2 12.7775 5.32947 6.12379 0.438615 -0.0687542 0.125028 -1.50974 1.3577 1.78752 
113 7.06427 5.0391 6.05447 0.254325 0.729907 0.0968536 -0.934131 -0.176161 0.620708 
13 13.4752 6.56304 6.10164 0.442096 -0.458332 -0.216096 1.52002 -0.93754 0.335307 
28 17.7584 6.69284 6.10627 -0.397597 0.649825 0.0781445 -2.87272 -0.135991 0.0892698 
98 9.30737 1.50972 6.18292 -0.157299 0.0387133 -0.0222068 -2.39382 -0.552912 0.67017 
106 13.6145 1.74139 6.37561 -0.229639 -0.247604 -0.0406072 0.134364 0.91023 -3.93358 
102 12.8446 2.92126 6.2985 -0.284074 -0.340712 -0.0384094 0.41711 0.193576 0.460981 
105 11.4133 2.83258 6.25326 0.337224 -0.198082 -0.111813 2.07775 1.24935 2.27334 
10 17.0578 5.47739 6.15404 -0.12864 0.197257 -0.098358 1.2955 -2.52258 0.733438 
5 19.2813 1.9338 6.37388 -0.130649 0.162452 -0.190301 1.88644 0.583921 2.87654 
119 13.5371 4.13779 6.21209 -0.513541 0.674988 0.0477931 1.56311 1.72258 -0.07964 
11 19.2301 4.34047 6.17648 -0.219903 0.156059 0.131455 1.72972 -3.17337 2.13201 
14 15.645 5.41952 6.14006 -0.221158 0.505412 0.175558 -3.04409 2.13524 0.0455353 
120 15.696 3.01991 6.27173 0.0891711 0.0189148 -0.0483008 -0.208072 0.0666097 1.0881 
15 17.8062 4.30065 6.19705 0.634182 -0.419748 0.0094134 -1.20872 1.63005 -0.854889 
3 14.9436 4.20835 6.25249 0.339081 -0.246378 -0.264451 -0.119965 1.86303 1.46879 
103 14.9972 1.78826 6.25645 0.464975 0.0466264 0.148126 -0.832994 -2.15107 1.92175 
128 8.46569 7.57765 6.05072 -0.4218 0.21488 0.173827 -1.5493 2.58565 0.416225 
4 17.126 3.0743 6.29178 -0.446235 -0.065363 -0.105097 -0.21929 2.22374 0.695518 
127 7.03731 7.50805 6.06238 0.342002 -0.628677 -0.0299893 1.94816 1.47662 1.49224 
101 10.6676 4.0104 6.1402 -0.265179 0.8867 -0.0295955 -0.393767 -0.266085 1.26876 
88 10.7079 1.59595 6.27074 0.106034 -0.21208 0.091352 -4.34522 -1.20212 1.80538 
83 6.34115 1.35922 6.08561 0.216805 -0.0289317 -0.029297 0.594895 -0.731631 -1.19472 
89 12.8861 0.551223 6.56896 0.147059 0.0473974 0.00688668 1.80282 -1.86709 -0.0796463 
115 9.24457 3.92976 6.1031 -0.172955 0.13394 0.02286 -0.544376 -1.45305 -0.997493 
96 7.07474 2.61069 6.10397 0.502441 -0.393156 -0.0897556 -2.04752 -0.629693 -1.17128 
118 11.3637 5.26072 6.10475 -0.127628 -0.971335 0.0626196 -0.419031 2.62824 0.331116 
97 8.52869 2.69919 6.11422 0.0216678 0.0130223 0.156864 1.07728 0.6574 1.70461 
95 6.34945 3.81144 6.07615 -0.917821 -0.275856 0.0375124 0.565836 2.37701 -2.02176 
129 9.19426 6.37359 6.10244 0.515335 -0.260886 -0.21595 -0.627572 0.0335763 -2.87448 
1 10.6251 6.44876 6.08273 -0.704264 0.024644 -0.0242791 -1.69701 0.448217 -1.32451 
112 6.32138 6.25844 6.04544 0.787073 -0.3143 0.171681 0.976635 -1.5339 0.800701 
94 4.90868 3.7052 6.09765 0 0 0 0 0 0 
111 4.90868 6.16519 6.09765 0 0 0 0 0 0 
82 4.90868 1.2452 6.09765 0 0 0 0 0 0 
90 11.5317 0.445339 6.37359 -0.325527 0.30125 -0.0298557 -1.01927 -0.869992 1.01254 
84 7.19522 0.221825 6.05203 -0.89555 0.203738 -0.0061726 -0.182184 1.23072 -1.18317 
121 17.8843 1.88579 6.32977 0.907694 0.493963 0.142462 0.342616 2.32755 -2.30803 
107 15.8134 0.644242 6.16305 -0.0492412 -0.0442941 -0.0795697 -0.377704 -1.53101 1.0789 
104 17.1723 0.687467 6.3717 -0.544411 -0.378173 0.0514175 -0.305928 0.226159 0.595706 
68 9.14265 16.1448 6.1393 0.0437092 -0.625931 0.0239924 -1.93053 -0.118657 1.17396 
35 10.566 13.7434 6.14176 0.457625 -0.145356 -0.0230731 -0.404908 -2.23567 -1.7663 
144 9.16019 13.6714 6.12869 -0.653216 0.814604 0.0503321 -1.81075 -1.30781 -0.0924068 
143 8.43131 14.8934 6.15609 0.626699 0.250035 -0.0904372 -0.255227 -3.3685 -0.405998 
142 7.01901 14.8542 6.13567 0.170405 -0.652853 -0.0979716 0.912232 -0.368391 0.528728 
194 14.8201 16.3062 6.03826 1.1603 0.524218 0.0410329 -0.313993 -1.05123 2.5648 
198 13.4259 16.2473 6.06266 -1.13692 0.171108 0.245892 1.0943 -1.05701 0.430293 
27 15.6144 7.84821 6.07759 -1.21241 -0.229425 0.00897885 -2.84821 0.520811 0.144727 
36 12.7157 12.5938 6.05996 -0.235528 -0.258989 0.0824935 4.04652 -1.4576 0.0888057 
58 13.4232 13.8271 6.04138 0.22722 -0.576366 0.171577 0.450183 -1.86356 -0.751396 
138 6.3163 13.6074 6.13174 0.284305 -0.0456911 -0.099216 0.112206 -2.25079 0.166027 
52 10.565 16.1976 6.13082 -0.410349 -0.282317 0.121547 -0.306422 -0.457574 1.50309 
57 11.2731 14.977 6.14955 0.407097 -0.0214088 -0.0720765 0.0444408 2.0505 -0.555915 
23 17.015 7.89626 6.1347 0.746036 -0.236963 -0.370961 0.382691 2.16376 -1.07264 
43 17.7238 9.11289 6.06273 -0.0564818 0.183382 0.0134994 2.97507 -2.47484 0.168675 
42 15.5746 10.2586 6.01591 0.00480831 0.836785 -0.177872 1.07845 -0.161263 -0.0137162 
285 19.0947 16.4371 6.0228 -0.500503 -0.358887 0.132061 -0.872395 0.477769 -0.0564756 
26 13.4521 8.97326 6.01212 0.274669 -0.129881 0.0931922 -0.914035 -1.03121 4.19736 
22 14.8638 9.0487 6.02089 0.341849 -0.752963 0.0362486 1.45427 -0.678484 0.692917 
53 12.6962 15.0215 6.13539 0.0111312 0.690746 -0.395023 -0.413086 0.831892 -0.446836 
55 16.9825 12.7406 5.96269 0.0495451 -0.173536 0.0247856 -0.147219 0.688734 1.47627 
136 9.17402 8.81982 6.07325 0.0213152 -0.628186 -0.0625552 0.569293 0.958816 0.347456 
12 11.3259 7.67389 6.0534 -0.055302 0.315248 0.0647619 -0.570502 0.286642 -0.210519 
59 15.5734 12.6904 5.97157 -0.442038 -0.122196 0.0345868 -0.167176 -1.45496 2.25364 
25 11.3075 10.0975 6.06602 -0.162004 0.515981 0.0822727 -1.66792 0.920092 1.85872 
7 10.5864 8.87326 6.08417 0.464598 0.0927309 -0.158496 -0.197921 0.599944 0.280092 
60 17.7012 11.5283 5.97233 0.244094 0.439487 -0.0722685 -1.044 -2.98111 -2.01854 
8 12.7426 7.75476 6.04293 -0.223841 0.00399513 0.0512767 1.30115 0.217543 1.1375 
38 16.9841 10.3129 6.00115 0.408004 -0.142384 0.136586 1.82201 3.10801 1.05013 
141 9.16315 11.2437 6.03665 -0.287952 0.31746 0.367983 -1.94825 2.38356 0.077133 
20 10.5657 11.3116 6.09812 1.03268 -0.559462 -0.228995 1.53371 -0.359939 -0.362666 
140 8.44046 12.4532 6.09256 0.313279 -0.238685 0.0128363 -0.754774 -0.432514 0.864767 
126 6.31502 8.71592 6.08425 0.509325 -0.234748 -0.0404566 0.476186 -0.0176834 1.15652 
41 13.4441 11.3785 6.03613 -0.193802 1.38529 -0.142931 1.75392 -3.0971 -0.969555 
133 6.33152 11.1469 6.09411 -0.649896 0.362488 0.0266886 -0.630278 0.466027 -1.30818 
135 8.45208 10.0242 6.08228 0.0867072 -0.463011 -0.167307 -0.987192 1.21331 -0.338478 
39 19.1393 9.1728 6.05005 -0.050246 -0.189809 -0.0892465 2.18004 -1.72112 1.88616 
51 6.31949 16.0696 6.07675 -0.271998 -0.0445161 0.235655 -2.30673 0.0483277 1.27784 
200 17.6944 13.96 5.98344 -0.111948 -0.3172 0.148676 -1.36297 -1.13197 1.08733 
139 7.03385 12.3844 6.11941 -0.249477 0.362254 -0.120352 1.50324 0.369815 -0.5899 
21 12.7332 10.1714 6.03743 -0.98304 -0.234378 -0.0459691 0.319649 -2.37997 -1.38324 
40 11.293 12.5278 6.11689 0.114413 0.485441 -0.104071 0.442859 -1.48354 -2.10898 
195 16.972 15.1532 6.0323 -0.462075 0.974613 -0.268019 0.229462 -0.000184964 3.75565 
37 14.8488 11.4757 5.98154 0.456848 -0.899809 0.158028 -1.81061 -1.99064 -0.882262 
54 14.8449 13.8914 6.01354 -0.411299 -0.175177 -0.0633445 1.77339 -1.94208 -0.424974 
196 19.0982 14.012 6.01424 0.153817 0.0455005 -0.128486 1.03864 1.59998 0.884191 
56 19.1228 11.5911 5.94495 -0.327659 -0.124822 0.198753 0.035585 1.07988 -0.597817 
134 7.0459 9.94065 6.07514 -0.37615 -0.100824 0.106794 -1.71683 1.18859 0.698045 
281 10.5652 21.0916 6.1324 -0.122912 -0.0076983 -0.0124403 -1.14761 -1.63171 0.830124 
310 12.7065 22.3576 6.09546 0.0633831 0.272656 0.0601763 -1.417 -1.15146 3.55807 
192 10.5785 18.6444 6.07998 -0.52496 -0.187049 0.117695 -0.207521 -1.46255 0.258699 
283 14.8155 18.7427 6.04088 0.663467 0.402486 0.286559 2.46879 2.62891 -0.0461989 
282 12.7011 19.9266 6.09182 -0.0884372 -0.253555 -0.165653 -1.73619 1.35281 -0.117861 
351 15.5406 24.8601 6.0835 -0.295246 0.0832733 0.0827569 -1.96255 -3.04635 1.37717 
312 13.42 21.1485 6.07476 -0.317707 -0.345629 0.16794 -0.499639 0.47 1.48885 
209 9.15587 18.5837 6.09484 -0.081618 0.13967 0.133369 1.06295 0.788093 0.397254 
287 13.408 18.7042 6.07203 -0.135394 -0.0448875 -0.0731018 -0.0298829 0.514277 0.460091 
67 8.42403 17.3567 6.13121 0.598388 0.102229 -0.182354 -1.66965 -0.822834 -2.85118 
301 14.8257 21.1795 6.10326 0.21241 0.660227 -0.107498 -1.41548 3.15863 -3.05244 
193 12.7093 17.4676 6.07207 -0.746337 -0.15423 0.125543 1.11516 2.30048 0.818305 
197 11.2756 17.4194 6.11146 0.998705 0.273123 -0.135118 0.577117 -4.51462 0.608625 
329 14.8314 23.6364 6.07487 0.160592 -0.55807 -0.0294144 -1.37467 -0.799793 -1.86551 
284 16.9541 17.5985 6.03607 0.00101453 0.0071668 -0.0345266 -0.983866 -1.15914 0.119094 
331 13.4233 23.5815 6.06675 -0.45583 0.229812 0.0773819 -0.126943 -1.90387 1.06839 
295 9.13652 21.0326 6.1536 0.735878 0.739894 -0.0860949 -1.22533 -0.173713 0.102265 
311 11.2938 22.3199 6.15146 -0.400748 -0.288192 -0.329954 -1.41339 0.250654 0.514072 
286 11.2868 19.8766 6.08344 -0.181848 -0.00628586 0.132973 4.75543 -0.616693 -1.62222 
208 8.44053 19.8008 6.13484 -0.154885 0.0764702 -0.0204596 -0.655194 4.32528 0.0554855 
66 7.01559 17.3053 6.09286 0.561296 -0.183062 0.10271 1.3058 1.27384 -0.79482 
206 6.31705 20.9888 6.13627 0.0979171 -0.47823 -0.0823692 -2.15612 -0.792472 0.538338 
294 8.43102 22.2687 6.14706 0.140416 -0.763514 -0.115992 -0.790956 -1.64845 0.357261 
293 7.01971 22.2193 6.12427 0.117206 0.213345 0.185288 -2.26245 -0.735935 -0.0287565 
318 7.02191 24.6739 6.09607 0.645296 -0.141136 0.0934594 -1.85396 1.58685 -0.342274 
332 15.546 22.4115 6.07959 -0.456223 0.0128332 -0.00349351 1.16031 -0.455526 0.41585 
292 6.3177 23.4433 6.14365 -0.10568 -0.257314 -0.303212 0.779583 -2.44745 -0.148372 
320 9.14646 23.4892 6.11947 0.730401 -0.244473 -0.0269848 -0.0188081 1.92541 0.337875 
137 4.90868 13.5452 6.09765 0 0 0 0 0 0 
132 4.90868 11.0852 6.09765 0 0 0 0 0 0 
125 4.90868 8.62519 6.09765 0 0 0 0 0 0 
50 4.90868 16.0052 6.09765 0 0 0 0 0 0 
199 15.55 15.1108 6.00978 0.446219 -0.124491 0.0790919 1.76172 1.11919 0.0144964 
289 17.6736 16.3944 6.00954 0.32457 -0.531502 0.191947 1.09269 -3.7185 -2.13758 
319 8.44472 24.702 6.10071 -0.22383 0.730779 -0.00853516 0.605917 -0.134339 -1.36131 
330 11.2767 24.7622 6.08948 0.331845 0.313583 0.012846 1.47354 0.959819 -0.0277875 
64 4.90868 18.4652 6.09765 0 0 0 0 0 0 
291 4.90868 23.3852 6.09765 0 0 0 0 0 0 
205 4.90868 20.9252 6.09765 0 0 0 0 0 0 
342 19.8034 22.5126 6.03727 -0.260397 0.379037 -0.0888133 2.22024 0.978429 -1.78107 
324 19.8082 20.0918 6.01748 -0.0326295 -0.314201 -0.0330886 1.71852 -0.142633 -1.35027 
304 15.537 19.9707 6.09702 0.0904544 -0.207371 -0.12417 0.220241 0.928461 -0.13775 
305 17.6636 18.8237 6.04603 0.504129 -0.15795 -0.0230122 -2.02344 -1.4123 1.75728 
303 19.0859 18.8703 6.01454 -0.155708 -0.230756 0.152593 -0.630853 -4.10314 -1.99681 
288 15.5445 17.537 6.05946 -0.602903 -0.224779 -0.169556 -0.000724365 0.231123 0.108571 
322 19.083 21.295 6.02274 0.0963608 0.0665136 0.0476491 -4.16207 -2.82015 -1.28355 
302 16.9535 20.0339 6.08854 -0.451084 -0.663269 -0.106092 2.3453 1.77194 2.55814 
207 7.02478 19.7645 6.13388 0.142313 -0.0461668 -0.0329271 1.43154 0.474704 1.36975 
309 10.5739 23.5321 6.10199 -0.52231 0.00490572 0.1482 0.634731 -1.13716 -0.114711 
328 12.6985 24.7936 6.08274 -0.13713 0.253148 0.0270491 -0.845954 -3.17065 -0.513957 
323 17.6702 21.2377 6.05717 0.15375 0.828259 0.0541022 -0.421959 1.81069 -0.684556 
321 16.953 22.4545 6.06061 0.275 -0.104036 0.0228176 1.38885 0.818999 -0.371521 
65 6.33218 18.5248 6.12917 -1.05873 0.086975 -0.176119 -0.723178 0.464839 1.60724 
352 17.6631 23.6798 6.06279 0.230943 0.292143 0.0135033 0.181206 -0.888356 2.09431 
348 16.95 24.8999 6.11855 0.202467 -0.235417 -0.2004 1.03973 -2.00214 3.19417 
341 19.0818 23.733 6.01818 -0.0350726 -0.414535 0.144367 -0.607474 1.13981 2.17961 
361 19.793 24.9544 6.0376 0.120703 0.137677 0.173273 -2.26435 -1.6475 0.716315 
218 14.8262 30.9604 6.12771 -0.262448 -0.0688125 -0.024458 -0.157332 0.11633 -0.283529 
211 12.6998 29.7073 6.12232 -0.133272 -0.821169 0.0636492 0.378757 0.598455 1.66438 
252 17.6593 33.4438 6.14537 -0.541518 0.0668033 -0.198192 0.655659 -2.09567 -0.536058 
236 15.5372 32.1852 6.14379 -0.673497 0.107679 -0.0946163 -0.230243 -0.646517 -0.395936 
213 16.9373 27.3331 6.07497 0.763815 -0.0970925 0.320183 0.00644688 -4.06991 -0.800753 
223 15.5271 29.7378 6.09197 0.238015 -0.124711 0.106152 1.02605 -1.13268 -0.560496 
232 16.9396 32.2171 6.11836 0.467204 0.251253 0.111595 -0.341439 -2.69878 -0.151699 
339 8.45621 27.1521 6.10805 -0.319463 0.79918 0.000499385 1.61419 -0.118765 -2.28022 
337 6.31303 28.3389 6.07151 0.856494 0.305808 0.357094 1.51484 -0.397667 -1.31659 
345 10.5685 28.4419 6.15263 0.23139 -0.547147 -0.205725 -2.73423 -1.4989 2.49632 
340 9.16368 25.9383 6.0928 -0.152407 -0.2157 0.0574734 -0.348476 -0.0241036 -0.897416 
363 11.2851 29.6558 6.12282 0.25417 0.421117 -0.0841832 0.323724 -1.07296 0.127366 
360 9.15979 28.401 6.12927 -0.291537 -0.845483 0.0338859 -1.65963 0.320163 -0.731933 
253 19.7721 32.2479 6.10102 0.14147 0.782605 -0.0239271 -0.0161496 0.189901 0.761733 
248 19.0666 33.4769 6.11149 0.0230289 -0.421129 0.161832 0.634323 1.60006 -1.31988 
381 9.14183 33.3 6.10406 0.697213 -0.32702 0.0595366 -3.00405 -0.1483 1.43429 
338 7.03578 27.1191 6.10583 0.107318 0.355547 -0.143615 0.784155 2.83627 -1.42183 
233 19.0636 31.0334 6.08447 -0.141007 -0.239625 0.0476347 0.364032 0.770877 -0.551508 
237 17.648 31.0005 6.10878 0.421575 0.0412048 -0.110139 -1.69293 -1.10448 1.58916 
317 6.32876 25.8975 6.08423 -0.561578 -0.38761 0.0944159 -2.72679 1.16466 -2.0921 
786 19.0562 38.3478 6.14488 0.0795522 0.417605 -0.066004 0.866369 -1.05393 -0.178266 
387 7.02457 39.4038 6.0808 0.313968 0.175944 -0.0228464 -0.350253 1.63096 0.0132338 
880 19.7703 39.5733 6.13083 -0.131514 -0.0456711 -0.125089 -1.37655 -1.05201 -0.362322 
383 6.33134 38.1714 6.0762 -0.631946 -0.163641 0.10019 -0.340755 0.91704 -1.97161 
270 19.7684 34.6996 6.1439 -0.212376 0.234727 -0.0381505 0.130606 1.78386 1.67022 
791 19.7684 37.1385 6.17092 0.119045 -0.0909677 -0.170754 -0.213341 -0.752128 -0.0895851 
789 15.515 39.516 6.00511 0.247777 0.152231 0.0310132 0.730347 -0.0537724 -0.133996 
264 16.9356 37.1003 6.06123 -0.887425 0.495991 0.0443463 0.396849 1.12377 0.417075 
785 16.94 39.5445 6.03039 -0.322701 0.0567806 -0.0341068 0.220741 0.891598 -1.29359 
879 17.6629 40.7662 6.01636 -1.26666 0.209819 -0.0794054 1.0606 -1.37651 0.595525 
896 19.7654 42.01 6.05545 0.25344 0.316213 -0.0608776 -0.41118 1.67265 -0.921334 
875 19.0596 40.79 6.07021 0.444063 -0.0896554 0.0338593 -1.85013 -1.59586 -0.482527 
790 17.6472 38.3265 6.08163 -0.148584 -0.204067 0.0242971 0.608056 0.547045 -3.18605 
384 7.02738 36.9432 6.09951 0.0872444 -0.0969574 -0.0168915 -0.282997 0.279046 0.977825 
379 7.01321 34.4817 6.09988 0.326496 -0.19775 0.121915 -1.22294 1.00776 1.68482 
386 9.1422 35.7523 6.15543 0.126687 -0.27732 -0.311636 1.47808 -1.57193 -1.27458 
385 8.44257 36.9777 6.09743 -0.28538 -0.358314 0.105275 -0.725142 -0.952861 0.822043 
380 8.4234 34.5165 6.12574 0.568125 0.246358 -0.0382655 -0.0262 1.11811 -2.54491 
249 11.2567 37.0182 6.04478 0.665117 0.0216729 0.0780248 0.185032 2.01153 -0.0528334 
784 14.8022 40.7426 5.97582 0.416455 -0.0258476 0.0626177 -0.89317 1.65698 0.0478397 
370 4.90868 33.2252 6.09765 0 0 0 0 0 0 
356 4.90868 30.7652 6.09765 0 0 0 0 0 0 
336 4.90868 28.3052 6.09765 0 0 0 0 0 0 
316 4.90868 25.8452 6.09765 0 0 0 0 0 0 
349 11.2798 27.2159 6.12114 0.111583 0.525706 0.140577 -0.192513 -0.930764 0.154882 
371 6.31646 33.2451 6.10289 0.219058 0.489157 -0.0280413 -0.472309 -1.49531 1.42679 
235 13.3961 33.3824 6.09235 0.535081 -0.475867 0.114812 -0.226416 -0.709856 -2.6158 
327 10.5752 25.9959 6.10516 -0.0763589 -0.902869 -0.0403707 0.377998 -3.0938 0.165946 
358 7.03193 29.5759 6.13832 -0.407173 -0.0826868 -0.20205 -1.72005 -1.26352 0.380593 
346 12.6965 27.2573 6.1326 -0.381242 -0.260115 0.0125197 0.788908 -0.345034 -0.514626 
347 14.8171 26.0746 6.09586 -0.223715 -0.525504 0.0883604 -0.872895 0.159948 0.950633 
364 13.4086 28.479 6.13947 -0.472319 0.263574 -0.109776 -0.520567 0.186953 0.220733 
373 8.44327 32.0524 6.0898 0.506342 0.212374 -0.0168818 -1.27874 -2.77993 2.29339 
221 11.2792 32.1122 6.08103 0.0167739 -0.223033 0.00976729 0.36113 -2.2785 -1.53157 
210 10.5768 30.8728 6.06745 -0.307987 0.234446 0.119133 1.23879 -0.21763 -2.19145 
224 17.6681 28.5503 6.08289 -0.438507 0.49442 0.0253874 0.13328 -0.277929 -1.12531 
216 10.5793 33.3359 6.10361 -0.975913 -0.00457505 -0.0964125 -2.418 0.915265 -1.4876 
219 16.9466 29.7784 6.08512 -0.103712 -0.668104 -0.010853 1.93073 -1.71773 2.2499 
220 19.0842 28.5925 6.09608 -0.0301747 0.170539 -0.0896495 -0.619651 -0.35702 -0.171394 
238 19.7902 29.8249 6.07869 -0.761637 -0.331273 0.10717 -0.691714 0.113129 1.38919 
372 7.03565 32.0358 6.10933 -0.426802 -0.455933 0.0043316 -2.34212 0.0210528 2.59484 
357 6.32181 30.8051 6.13449 0.211621 -0.26698 -0.115453 1.94139 0.0128541 0.638295 
359 8.443 29.6077 6.12789 -0.071533 0.01822 -0.100181 -1.42447 1.34896 -0.405767 
350 13.396 26.0325 6.11689 0.482539 -0.0599653 -0.0609247 1.17389 -0.194029 0.604552 
231 14.8155 33.4035 6.13563 0.0349932 -0.197205 -0.136052 0.180679 -1.92129 -0.226053 
225 19.8031 27.3791 6.08878 -0.370972 0.179085 0.142802 -2.74088 1.21975 -2.09485 
214 19.0776 26.1697 6.12476 0.185558 -0.432602 -0.281304 -2.93844 -0.631811 -0.722464 
366 17.6666 26.1215 6.12909 -0.293917 0.162451 -0.114016 -3.68832 1.69129 -2.2782 
365 15.5331 27.2836 6.11938 -0.435949 0.911322 -0.15914 1.08985 -0.555465 -0.58022 
374 9.15717 30.8235 6.06305 0.0759581 0.893648 0.155691 1.0868 -1.21975 0.015026 
222 13.4099 30.9222 6.1172 -0.0293568 0.847615 -0.019253 0.00247071 -1.70518 -3.60335 
212 14.8107 28.5084 6.11014 0.852881 -0.0592478 0.0768818 -0.728876 -0.243603 0.748952 
217 12.6929 32.1515 6.10194 0.264157 -0.421298 -0.0802616 -1.57333 0.983378 -2.34345 
234 11.2874 34.5654 6.10407 -0.623547 0.160678 -0.0680511 0.418272 0.575426 -0.831674 
276 8.41798 41.8839 6.04234 1.22335 0.185011 -0.0305141 -1.40628 -0.581866 1.34641 
782 10.5585 43.1326 6.02223 0.107813 -0.310491 0.061051 2.30974 -2.08255 0.11305 
377 4.90868 35.6852 6.09765 0 0 0 0 0 0 
382 4.90868 38.1452 6.09765 0 0 0 0 0 0 
378 6.32548 35.7028 6.11221 -0.402953 0.662295 -0.106933 0.691782 2.3887 -0.860211 
259 4.90868 40.6052 6.09765 0 0 0 0 0 0 
273 4.90868 43.0652 6.09765 0 0 0 0 0 0 
229 10.5626 35.7852 6.09066 -0.130377 -0.275557 0.117264 -1.5804 3.11756 -1.39603 
787 11.2619 41.906 6.00442 0.294996 0.471764 0.13906 -0.224801 -1.71132 -2.0897 
262 12.679 39.4942 6.03681 -0.395856 0.420222 -0.128372 4.01549 1.42299 0.586284 
267 13.3867 38.281 6.0582 0.0755013 -0.368866 -0.0962002 -0.510433 -0.701661 -0.251489 
783 12.6793 41.9389 6.02743 -0.0713676 0.198268 -0.0410075 -2.15465 1.56044 2.3828 
788 13.3928 40.7233 6.02413 -0.251288 -0.303101 -0.0398686 -1.91572 1.27075 -2.0927 
266 11.2523 39.4761 5.97705 0.732726 -0.753413 0.352264 -0.684511 -0.960036 -2.37788 
246 14.8119 35.8399 6.05328 0.11875 -0.0721958 0.205303 1.09778 0.0978154 1.58166 
247 16.9428 34.6667 6.10523 -0.10371 -0.847724 0.0765315 1.52878 -0.282127 0.356155 